 *******************************************************************************
 ** Site#: 9602  E-mail support:    MrMOPAC@ATT.net    Version 18.053W 64BITS **
 *******************************************************************************
 ** Cite this program as: MOPAC2016, Version: 18.053W, James J. P. Stewart,   **
 ** Stewart Computational Chemistry, web: HTTP://OpenMOPAC.net. Days left: 174**
 *******************************************************************************
 **                                                                           **
 **                                MOPAC2016                                  **
 **                                                                           **
 *******************************************************************************

                              PM7 CALCULATION RESULTS


 *******************************************************************************
 *  CALCULATION DONE:                                Thu Feb 22 16:27:02 2018  *
 *  GEO_DAT    - DATA SET GEOMETRY IS IN FILE "LOCATE-TS FOR HYDRIDE TRANSFER FROM PROPENAL ANION TO N-METHYLPYRIDINE.ARC"
 *  EPS= 78.40 - USE ANDREAS KLAMT'S COSMO IMPLICIT SOLVATION MODEL
 *  TS         - USE EF ROUTINE FOR TS SEARCH
 *  T=         - A TIME OF 172800.0 SECONDS REQUESTED
 *  DUMP=N     - RESTART FILE WRITTEN EVERY  7200.000 SECONDS
 *  HTML       - WRITE HTML SCRIPT TO READ PDB FILE USING JSMOL
 *  HTML(NORES)- SUPPRESS LIST OF RESIDUES IN HTML FILE
 *******************************************************************************
geo_dat="LOCATE-TS for hydride transfer from propenal anion to N-methylpyridine.arc" +
eps=78.4 HTML(nores) TS
 Refine the transition state for the reaction [CHO-CH-CH3]^(-) + [C5H5N-CH3]^(+) => CHO-CH=CH2 + C5H6N-CH3

   ATOM                 CHEMICAL                   X               Y               Z
  NUMBER                 SYMBOL               (ANGSTROMS)     (ANGSTROMS)     (ANGSTROMS)
 
     1       O(HETATM    1  O   HET A   1)    0.00051758      0.71734050      0.32676668   
     2       C(HETATM    2  C   HET B   2)    3.40741739     -0.35964245     -0.12023906   
     3       C(HETATM    3  C   HET C   1)    0.10223545      1.94584734      0.44144557   
     4       C(HETATM    4  C1  HET D   2)    2.72767619      1.13211324      1.62824189   
     5       N(HETATM    5  N   HET D   2)    2.78099834     -0.13751278      1.09416374   
     6       C(HETATM    6  C2  HET D   2)    3.25851708  *   2.20019284  *   0.95420526  *
     7       C(HETATM    7  C3  HET D   2)    3.76907969  *   2.03703703  *  -0.38603485  *
     8       C(HETATM    8  C4  HET D   2)    3.96415741  *   0.67081152  *  -0.81899124  *
     9       H(HETATM    9  H   HET E   1)   -0.28169594      2.38214209      1.37719934   
    10       C(HETATM   10  C   HET F   2)    2.03315414     -1.22172326      1.73590321   
    11       H(HETATM   11 1H1  HET K   1)    2.69976225  *   2.45946625  *  -1.22177809  *
    12       H(HETATM   12 2H1  HET K   1)    1.38565611  *   1.28177186  *  -1.85749077  *
    13       H(HETATM   13 3H1  HET K   1)    1.51145966  *   2.97908832  *  -2.50887673  *
    14       H(HETATM   14  H2  HET K   1)    0.50719599      3.86730989     -0.41959076   
    15       H(HETATM   15  H1  HET D   2)    2.26603207      1.22934270      2.62047804   
    16       H(HETATM   16  H2  HET D   2)    3.26398163      3.19061073      1.40394525   
    17       H(HETATM   17  H3  HET D   2)    4.45793194  *   2.80359684  *  -0.76881275  *
    18       H(HETATM   18  H4  HET D   2)    4.50214226      0.48873060     -1.74496484   
    19       H(HETATM   19 1H   HET F   2)    2.11175347     -1.16097666      2.83689138   
    20       H(HETATM   20 2H   HET F   2)    2.41707903     -2.21131385      1.43080977   
    21       H(HETATM   21 3H   HET F   2)    0.96009270     -1.16451251      1.46005802   
    22       C(HETATM   22  C1  HET K   1)    1.40340821  *   2.34946287  *  -1.62393825  *
    23       C(HETATM   23  C2  HET K   1)    0.63005272  *   2.80459994  *  -0.54192282  *
    24       H(HETATM   24  H   HET B   2)    3.45426959     -1.40110366     -0.46302818   
 

 General Reference for PM7:
 "Optimization of Parameters for Semiempirical Methods VI: More Modifications to the 
 NDDO Approximations and Re-optimization of Parameters", J. J. P. Stewart, J. Mol. Mod., 1:32, 19 (2013)
 http://www.springerlink.com/openurl.asp?genre=article&id=doi:10.1007/s00894-012-1667-x

           Empirical Formula: C9 H13 N O  =    24 atoms



      MOLECULAR POINT GROUP   :   C1  


      RHF CALCULATION, NO. OF DOUBLY OCCUPIED LEVELS = 30


          Transition state refinement using EF

          HESSIAN CALCULATED NUMERICALLY

 CYCLE:     1 TIME:   0.734 TIME LEFT:  2.00D  GRAD.:     9.985 HEAT:  33.73723
 CYCLE:     2 TIME:   0.062 TIME LEFT:  2.00D  GRAD.:     0.826 HEAT:  33.76119

     GRADIENT =  0.82623  IS LESS THAN CUTOFF =  1.00000



 -------------------------------------------------------------------------------
 eps=78.4 HTML(nores) TS
 Refine the transition state for the reaction [CHO-CH-CH3]^(-) + [C5H5N-CH3]^(+) => CHO-CH=CH2 + C5H6N-CH3



     GEOMETRY OPTIMISED USING EIGENVECTOR FOLLOWING (TS).     
     SCF FIELD WAS ACHIEVED                                   


                              PM7 CALCULATION
                                                       MOPAC2016 (Version: 18.053W)
                                                       Thu Feb 22 16:27:03 2018
                                                       No. of days remaining = 174




          FINAL HEAT OF FORMATION =         33.76119 KCAL/MOL =     141.25680 KJ/MOL
          VAN DER WAALS AREA      =        186.34 SQUARE ANGSTROMS


          TOTAL ENERGY            =      -1759.64723 EV
          ELECTRONIC ENERGY       =      -2798.47136 EV  POINT GROUP:     C1  
          CORE-CORE REPULSION     =       1038.82413 EV
          DIELECTRIC ENERGY       =         -0.73844 EV
          COSMO AREA              =        186.34 SQUARE ANGSTROMS
          COSMO VOLUME            =        202.11 CUBIC ANGSTROMS

          GRADIENT NORM           =          0.82623
          IONIZATION POTENTIAL    =          7.442794 EV
          HOMO LUMO ENERGIES (EV) =         -7.443 -0.929
          NO. OF FILLED LEVELS    =         30
          MOLECULAR WEIGHT        =        151.2078

          MOLECULAR DIMENSIONS (Angstroms)

            Atom       Atom       Distance
            H    19    H    13     6.78991
            H    18    H     9     5.95340
            H    21    H    16     4.24542


          SCF CALCULATIONS        =         33
 




   ATOM                 CHEMICAL                   X               Y               Z
  NUMBER                 SYMBOL               (ANGSTROMS)     (ANGSTROMS)     (ANGSTROMS)
 
     1       O(HETATM    1  O   HET A   1)    0.00051758      0.71734050      0.32676668   
     2       C(HETATM    2  C   HET B   2)    3.40741739     -0.35964245     -0.12023906   
     3       C(HETATM    3  C   HET C   1)    0.10223545      1.94584734      0.44144557   
     4       C(HETATM    4  C1  HET D   2)    2.72767619      1.13211324      1.62824189   
     5       N(HETATM    5  N   HET D   2)    2.78099834     -0.13751278      1.09416374   
     6       C(HETATM    6  C2  HET D   2)    3.25635451  *   2.20032758  *   0.95268180  *
     7       C(HETATM    7  C3  HET D   2)    3.76194629  *   2.03737630  *  -0.39077016  *
     8       C(HETATM    8  C4  HET D   2)    3.96241795  *   0.67010021  *  -0.82048812  *
     9       H(HETATM    9  H   HET E   1)   -0.28169594      2.38214209      1.37719934   
    10       C(HETATM   10  C   HET F   2)    2.03315414     -1.22172326      1.73590321   
    11       H(HETATM   11 1H1  HET K   1)    2.69801126  *   2.45115167  *  -1.22238067  *
    12       H(HETATM   12 2H1  HET K   1)    1.37615328  *   1.28158493  *  -1.86719799  *
    13       H(HETATM   13 3H1  HET K   1)    1.51176520  *   2.98165908  *  -2.50927450  *
    14       H(HETATM   14  H2  HET K   1)    0.50719599      3.86730989     -0.41959076   
    15       H(HETATM   15  H1  HET D   2)    2.26603207      1.22934270      2.62047804   
    16       H(HETATM   16  H2  HET D   2)    3.26398163      3.19061073      1.40394525   
    17       H(HETATM   17  H3  HET D   2)    4.45126328  *   2.80292274  *  -0.77446586  *
    18       H(HETATM   18  H4  HET D   2)    4.50214226      0.48873060     -1.74496484   
    19       H(HETATM   19 1H   HET F   2)    2.11175347     -1.16097666      2.83689138   
    20       H(HETATM   20 2H   HET F   2)    2.41707903     -2.21131385      1.43080977   
    21       H(HETATM   21 3H   HET F   2)    0.96009270     -1.16451251      1.46005802   
    22       C(HETATM   22  C1  HET K   1)    1.39503405  *   2.34794877  *  -1.62844716  *
    23       C(HETATM   23  C2  HET K   1)    0.62729740  *   2.80411844  *  -0.54467390  *
    24       H(HETATM   24  H   HET B   2)    3.45426959     -1.40110366     -0.46302818   

                             CARTESIAN COORDINATES

   1    O        0.000517580     0.717340500     0.326766680
   2    C        3.407417390    -0.359642450    -0.120239060
   3    C        0.102235450     1.945847340     0.441445570
   4    C        2.727676190     1.132113240     1.628241890
   5    N        2.780998340    -0.137512780     1.094163740
   6    C        3.256354515     2.200327580     0.952681803
   7    C        3.761946292     2.037376297    -0.390770155
   8    C        3.962417954     0.670100211    -0.820488119
   9    H       -0.281695940     2.382142090     1.377199340
  10    C        2.033154140    -1.221723260     1.735903210
  11    H        2.698011264     2.451151669    -1.222380670
  12    H        1.376153282     1.281584934    -1.867197990
  13    H        1.511765198     2.981659082    -2.509274496
  14    H        0.507195990     3.867309890    -0.419590760
  15    H        2.266032070     1.229342700     2.620478040
  16    H        3.263981630     3.190610730     1.403945250
  17    H        4.451263279     2.802922743    -0.774465859
  18    H        4.502142260     0.488730600    -1.744964840
  19    H        2.111753470    -1.160976660     2.836891380
  20    H        2.417079030    -2.211313850     1.430809770
  21    H        0.960092700    -1.164512510     1.460058020
  22    C        1.395034049     2.347948769    -1.628447155
  23    C        0.627297397     2.804118437    -0.544673896
  24    H        3.454269590    -1.401103660    -0.463028180


           Empirical Formula: C9 H13 N O  =    24 atoms



      MOLECULAR POINT GROUP   :   C1  


                  EIGENVALUES  
 -37.47427 -29.63866 -29.06166 -26.70120 -26.58045 -24.79869 -23.15190 -22.26148
 -22.06049 -18.39661 -18.17193 -16.76825 -16.65005 -16.39292 -16.06477 -15.10063
 -14.86104 -14.41412 -14.35478 -13.63572 -13.57136 -13.14474 -12.74621 -12.43103
 -12.34080 -12.14460 -10.57535  -9.83242  -9.59310  -7.44279  -0.92870   0.03661
   1.35549   1.63823   2.07677   3.91490   3.93285   4.47552   4.69891   4.76789
   4.90503   5.03633   5.11242   5.28456   5.37141   5.40521   5.58752   5.64833
   5.79072   5.84544   6.01053   6.09452   6.20490   6.22892   6.24621   6.58009
   7.01211


              NET ATOMIC CHARGES AND DIPOLE CONTRIBUTIONS

  ATOM NO.                 TYPE                        CHARGE      No. of ELECS.   s-Pop       p-Pop       
    1          O(HETATM    1  O   HET A   1)          -0.744444        6.7444     1.87908     4.86537
    2          C(HETATM    2  C   HET B   2)           0.055472        3.9445     1.09283     2.85170
    3          C(HETATM    3  C   HET C   1)           0.397300        3.6027     1.11086     2.49184
    4          C(HETATM    4  C1  HET D   2)           0.084924        3.9151     1.09596     2.81912
    5          N(HETATM    5  N   HET D   2)          -0.232047        5.2320     1.51274     3.71931
    6          C(HETATM    6  C2  HET D   2)          -0.309825        4.3098     1.07730     3.23252
    7          C(HETATM    7  C3  HET D   2)          -0.053903        4.0539     1.08279     2.97112
    8          C(HETATM    8  C4  HET D   2)          -0.318208        4.3182     1.07778     3.24043
    9          H(HETATM    9  H   HET E   1)           0.095785        0.9042     0.90422
   10          C(HETATM   10  C   HET F   2)          -0.268843        4.2688     1.06814     3.20070
   11          H(HETATM   11 1H1  HET K   1)           0.128483        0.8715     0.87152
   12          H(HETATM   12 2H1  HET K   1)           0.147148        0.8529     0.85285
   13          H(HETATM   13 3H1  HET K   1)           0.145056        0.8549     0.85494
   14          H(HETATM   14  H2  HET K   1)           0.154674        0.8453     0.84533
   15          H(HETATM   15  H1  HET D   2)           0.188796        0.8112     0.81120
   16          H(HETATM   16  H2  HET D   2)           0.180414        0.8196     0.81959
   17          H(HETATM   17  H3  HET D   2)           0.169259        0.8307     0.83074
   18          H(HETATM   18  H4  HET D   2)           0.181308        0.8187     0.81869
   19          H(HETATM   19 1H   HET F   2)           0.175215        0.8248     0.82478
   20          H(HETATM   20 2H   HET F   2)           0.175421        0.8246     0.82458
   21          H(HETATM   21 3H   HET F   2)           0.182736        0.8173     0.81726
   22          C(HETATM   22  C1  HET K   1)          -0.176295        4.1763     1.08920     3.08709
   23          C(HETATM   23  C2  HET K   1)          -0.548047        4.5480     1.06103     3.48702
   24          H(HETATM   24  H   HET B   2)           0.189621        0.8104     0.81038

          NET CHARGE ON RESIDUES

      Residue         Charge  Anion or
                              Cation?
      HET A   1       -0.744  ANION
      HET B   2       +0.245
      HET C   1       +0.493
      HET D   2       -0.109
      HET F   2       +0.265
      HET K   1       -0.149
 


 DIPOLE           X         Y         Z       TOTAL
 POINT-CHG.     5.944    -1.040     1.991     6.354
 HYBRID         0.083    -0.313    -0.093     0.337
 SUM            6.026    -1.353     1.898     6.461


          ATOMIC ORBITAL ELECTRON POPULATIONS

                   Atom                  s        px        py        pz   
   O(HETATM    1  O   HET A   1)   1.87908   1.65423   1.32112   1.89001
   C(HETATM    2  C   HET B   2)   1.09283   0.92601   1.07680   0.84888
   C(HETATM    3  C   HET C   1)   1.11086   0.73593   0.81955   0.93636
   C(HETATM    4  C1  HET D   2)   1.09596   0.94784   0.84140   1.02989
   N(HETATM    5  N   HET D   2)   1.51274   1.38681   1.12376   1.20874
   C(HETATM    6  C2  HET D   2)   1.07730   1.12132   1.07756   1.03364
   C(HETATM    7  C3  HET D   2)   1.08279   0.98518   1.02111   0.96483
   C(HETATM    8  C4  HET D   2)   1.07778   1.13623   0.99089   1.11331
   H(HETATM    9  H   HET E   1)   0.90422
   C(HETATM   10  C   HET F   2)   1.06814   1.09958   0.97925   1.12187
   H(HETATM   11 1H1  HET K   1)   0.87152
   H(HETATM   12 2H1  HET K   1)   0.85285
   H(HETATM   13 3H1  HET K   1)   0.85494
   H(HETATM   14  H2  HET K   1)   0.84533
   H(HETATM   15  H1  HET D   2)   0.81120
   H(HETATM   16  H2  HET D   2)   0.81959
   H(HETATM   17  H3  HET D   2)   0.83074
   H(HETATM   18  H4  HET D   2)   0.81869
   H(HETATM   19 1H   HET F   2)   0.82478
   H(HETATM   20 2H   HET F   2)   0.82458
   H(HETATM   21 3H   HET F   2)   0.81726
   C(HETATM   22  C1  HET K   1)   1.08920   0.91068   1.13488   1.04153
   C(HETATM   23  C2  HET K   1)   1.06103   1.27212   1.09973   1.11517
   H(HETATM   24  H   HET B   2)   0.81038
 *******************************************************************************
 ** Site#: 9602  E-mail support:    MrMOPAC@ATT.net    Version 18.053W 64BITS **
 *******************************************************************************
 ** Cite this program as: MOPAC2016, Version: 18.053W, James J. P. Stewart,   **
 ** Stewart Computational Chemistry, web: HTTP://OpenMOPAC.net. Days left: 174**
 *******************************************************************************
 **                                                                           **
 **                                MOPAC2016                                  **
 **                                                                           **
 *******************************************************************************

                              PM7 CALCULATION RESULTS


 *******************************************************************************
 *  CALCULATION DONE:                                Thu Feb 22 16:27:03 2018  *
 *  EPS= 78.40 - USE ANDREAS KLAMT'S COSMO IMPLICIT SOLVATION MODEL
 *  IRC=N      - INTRINSIC REACTION COORDINATE -1 DEFINED
 *  OLDGEO     - PREVIOUS GEOMETRY TO BE USED
 *  T=         - A TIME OF 172800.0 SECONDS REQUESTED
 *  DUMP=N     - RESTART FILE WRITTEN EVERY  7200.000 SECONDS
 *  CYCLES=    - DO A MAXIMUM OF   100 STEPS
 *  HTML       - WRITE HTML SCRIPT TO GENERATE ANIMATION USING JSMOL
 *             - TO DISPLAY IN PDB FORMAT, ADD "PDBOUT"
 *  X-PRIOR    - GEOMETRY CHANGES TAKE PRIORITY IN DRC
 *******************************************************************************
oldgeo irc=-1* x-priority=0.1 html eps=78.4 cycles=100
 Map out the IRC for hydride migration from prop-2-enal anion to Methylpyridinium cation

   ATOM                 CHEMICAL                   X               Y               Z
  NUMBER                 SYMBOL               (ANGSTROMS)     (ANGSTROMS)     (ANGSTROMS)
 
     1       O(HETATM    1  O   HET A   1)    0.00051758      0.71734050      0.32676668   
     2       C(HETATM    2  C   HET B   2)    3.40741739     -0.35964245     -0.12023906   
     3       C(HETATM    3  C   HET C   1)    0.10223545      1.94584734      0.44144557   
     4       C(HETATM    4  C1  HET D   2)    2.72767619      1.13211324      1.62824189   
     5       N(HETATM    5  N   HET D   2)    2.78099834     -0.13751278      1.09416374   
     6       C(HETATM    6  C2  HET D   2)    3.25635451  *   2.20032758  *   0.95268180  *
     7       C(HETATM    7  C3  HET D   2)    3.76194629  *   2.03737630  *  -0.39077016  *
     8       C(HETATM    8  C4  HET D   2)    3.96241795  *   0.67010021  *  -0.82048812  *
     9       H(HETATM    9  H   HET E   1)   -0.28169594      2.38214209      1.37719934   
    10       C(HETATM   10  C   HET F   2)    2.03315414     -1.22172326      1.73590321   
    11       H(HETATM   11 1H1  HET K   1)    2.69801126  *   2.45115167  *  -1.22238067  *
    12       H(HETATM   12 2H1  HET K   1)    1.37615328  *   1.28158493  *  -1.86719799  *
    13       H(HETATM   13 3H1  HET K   1)    1.51176520  *   2.98165908  *  -2.50927450  *
    14       H(HETATM   14  H2  HET K   1)    0.50719599      3.86730989     -0.41959076   
    15       H(HETATM   15  H1  HET D   2)    2.26603207      1.22934270      2.62047804   
    16       H(HETATM   16  H2  HET D   2)    3.26398163      3.19061073      1.40394525   
    17       H(HETATM   17  H3  HET D   2)    4.45126328  *   2.80292274  *  -0.77446586  *
    18       H(HETATM   18  H4  HET D   2)    4.50214226      0.48873060     -1.74496484   
    19       H(HETATM   19 1H   HET F   2)    2.11175347     -1.16097666      2.83689138   
    20       H(HETATM   20 2H   HET F   2)    2.41707903     -2.21131385      1.43080977   
    21       H(HETATM   21 3H   HET F   2)    0.96009270     -1.16451251      1.46005802   
    22       C(HETATM   22  C1  HET K   1)    1.39503405  *   2.34794877  *  -1.62844716  *
    23       C(HETATM   23  C2  HET K   1)    0.62729740  *   2.80411844  *  -0.54467390  *
    24       H(HETATM   24  H   HET B   2)    3.45426959     -1.40110366     -0.46302818   
 

 General Reference for PM7:
 "Optimization of Parameters for Semiempirical Methods VI: More Modifications to the 
 NDDO Approximations and Re-optimization of Parameters", J. J. P. Stewart, J. Mol. Mod., 1:32, 19 (2013)
 http://www.springerlink.com/openurl.asp?genre=article&id=doi:10.1007/s00894-012-1667-x

           Empirical Formula: C9 H13 N O  =    24 atoms



      MOLECULAR POINT GROUP   :   C1  


      RHF CALCULATION, NO. OF DOUBLY OCCUPIED LEVELS = 30



          HEAT OF FORMATION =      33.761226 KCALS/MOLE


          GRADIENT NORM =   7.45883


          TIME FOR SCF CALCULATION =    0.03

          TIME FOR DERIVATIVES     =    0.02

          MOLECULAR WEIGHT =  151.21


          ESTIMATED TIME TO COMPLETE CALCULATION =        6.75 SECONDS

    FOR POINT-GROUP C1   THERE ARE   1 UNIQUE SYMMETRY FUNCTIONS.

 STEP:   1 TIME =     0.03 SECS, INTEGRAL =      0.03 TIME LEFT: 172799.92
 STEP:   2 TIME =     0.05 SECS, INTEGRAL =      0.08 TIME LEFT: 172799.88
 STEP:   3 TIME =     0.05 SECS, INTEGRAL =      0.12 TIME LEFT: 172799.83
 STEP:   4 TIME =     0.05 SECS, INTEGRAL =      0.17 TIME LEFT: 172799.78
 STEP:   5 TIME =     0.05 SECS, INTEGRAL =      0.22 TIME LEFT: 172799.73
 STEP:   6 TIME =     0.05 SECS, INTEGRAL =      0.27 TIME LEFT: 172799.69
 STEP:   7 TIME =     0.05 SECS, INTEGRAL =      0.31 TIME LEFT: 172799.64
 STEP:   8 TIME =     0.03 SECS, INTEGRAL =      0.34 TIME LEFT: 172799.61
 STEP:   9 TIME =     0.05 SECS, INTEGRAL =      0.39 TIME LEFT: 172799.56
 STEP:  10 TIME =     0.03 SECS, INTEGRAL =      0.42 TIME LEFT: 172799.53
 STEP:  11 TIME =     0.05 SECS, INTEGRAL =      0.47 TIME LEFT: 172799.48
 STEP:  12 TIME =     0.05 SECS, INTEGRAL =      0.52 TIME LEFT: 172799.44
 STEP:  13 TIME =     0.03 SECS, INTEGRAL =      0.55 TIME LEFT: 172799.41
 STEP:  14 TIME =     0.05 SECS, INTEGRAL =      0.59 TIME LEFT: 172799.36
 STEP:  15 TIME =     0.05 SECS, INTEGRAL =      0.64 TIME LEFT: 172799.31
 STEP:  16 TIME =     0.03 SECS, INTEGRAL =      0.67 TIME LEFT: 172799.28
 STEP:  17 TIME =     0.05 SECS, INTEGRAL =      0.72 TIME LEFT: 172799.23
 STEP:  18 TIME =     0.05 SECS, INTEGRAL =      0.77 TIME LEFT: 172799.19
 STEP:  19 TIME =     0.03 SECS, INTEGRAL =      0.80 TIME LEFT: 172799.16
 STEP:  20 TIME =     0.05 SECS, INTEGRAL =      0.84 TIME LEFT: 172799.11
 STEP:  21 TIME =     0.03 SECS, INTEGRAL =      0.88 TIME LEFT: 172799.08
 STEP:  22 TIME =     0.05 SECS, INTEGRAL =      0.92 TIME LEFT: 172799.03
 STEP:  23 TIME =     0.03 SECS, INTEGRAL =      0.95 TIME LEFT: 172799.00
 STEP:  24 TIME =     0.05 SECS, INTEGRAL =      1.00 TIME LEFT: 172798.95
 STEP:  25 TIME =     0.06 SECS, INTEGRAL =      1.06 TIME LEFT: 172798.89
 STEP:  26 TIME =     0.05 SECS, INTEGRAL =      1.11 TIME LEFT: 172798.85
 STEP:  27 TIME =     0.06 SECS, INTEGRAL =      1.17 TIME LEFT: 172798.79
 STEP:  28 TIME =     0.06 SECS, INTEGRAL =      1.23 TIME LEFT: 172798.72
 STEP:  29 TIME =     0.05 SECS, INTEGRAL =      1.28 TIME LEFT: 172798.67
 STEP:  30 TIME =     0.03 SECS, INTEGRAL =      1.31 TIME LEFT: 172798.64
 STEP:  31 TIME =     0.03 SECS, INTEGRAL =      1.34 TIME LEFT: 172798.61
 STEP:  32 TIME =     0.05 SECS, INTEGRAL =      1.39 TIME LEFT: 172798.57
 STEP:  33 TIME =     0.03 SECS, INTEGRAL =      1.42 TIME LEFT: 172798.54
 STEP:  34 TIME =     0.05 SECS, INTEGRAL =      1.46 TIME LEFT: 172798.49
 STEP:  35 TIME =     0.03 SECS, INTEGRAL =      1.50 TIME LEFT: 172798.46
 STEP:  36 TIME =     0.05 SECS, INTEGRAL =      1.54 TIME LEFT: 172798.41
 STEP:  37 TIME =     0.03 SECS, INTEGRAL =      1.57 TIME LEFT: 172798.38
 STEP:  38 TIME =     0.05 SECS, INTEGRAL =      1.62 TIME LEFT: 172798.33
 STEP:  39 TIME =     0.05 SECS, INTEGRAL =      1.67 TIME LEFT: 172798.29
 STEP:  40 TIME =     0.05 SECS, INTEGRAL =      1.71 TIME LEFT: 172798.24
 STEP:  41 TIME =     0.06 SECS, INTEGRAL =      1.78 TIME LEFT: 172798.18
 STEP:  42 TIME =     0.03 SECS, INTEGRAL =      1.81 TIME LEFT: 172798.14
 STEP:  43 TIME =     0.05 SECS, INTEGRAL =      1.86 TIME LEFT: 172798.10
 STEP:  44 TIME =     0.03 SECS, INTEGRAL =      1.89 TIME LEFT: 172798.07
 STEP:  45 TIME =     0.05 SECS, INTEGRAL =      1.93 TIME LEFT: 172798.02
 STEP:  46 TIME =     0.03 SECS, INTEGRAL =      1.96 TIME LEFT: 172797.99
 STEP:  47 TIME =     0.03 SECS, INTEGRAL =      2.00 TIME LEFT: 172797.96
 STEP:  48 TIME =     0.05 SECS, INTEGRAL =      2.04 TIME LEFT: 172797.91
 STEP:  49 TIME =     0.05 SECS, INTEGRAL =      2.09 TIME LEFT: 172797.86
 STEP:  50 TIME =     0.03 SECS, INTEGRAL =      2.12 TIME LEFT: 172797.83
 STEP:  51 TIME =     0.05 SECS, INTEGRAL =      2.17 TIME LEFT: 172797.79
 STEP:  52 TIME =     0.05 SECS, INTEGRAL =      2.21 TIME LEFT: 172797.74
 STEP:  53 TIME =     0.05 SECS, INTEGRAL =      2.26 TIME LEFT: 172797.69
 STEP:  54 TIME =     0.05 SECS, INTEGRAL =      2.31 TIME LEFT: 172797.64
 STEP:  55 TIME =     0.03 SECS, INTEGRAL =      2.34 TIME LEFT: 172797.61
 STEP:  56 TIME =     0.03 SECS, INTEGRAL =      2.37 TIME LEFT: 172797.58
 STEP:  57 TIME =     0.05 SECS, INTEGRAL =      2.42 TIME LEFT: 172797.54
 STEP:  58 TIME =     0.03 SECS, INTEGRAL =      2.45 TIME LEFT: 172797.50
 STEP:  59 TIME =     0.05 SECS, INTEGRAL =      2.50 TIME LEFT: 172797.46
 STEP:  60 TIME =     0.03 SECS, INTEGRAL =      2.53 TIME LEFT: 172797.43
 STEP:  61 TIME =     0.05 SECS, INTEGRAL =      2.57 TIME LEFT: 172797.38
 STEP:  62 TIME =     0.03 SECS, INTEGRAL =      2.61 TIME LEFT: 172797.35
 STEP:  63 TIME =     0.05 SECS, INTEGRAL =      2.65 TIME LEFT: 172797.30
 STEP:  64 TIME =     0.03 SECS, INTEGRAL =      2.68 TIME LEFT: 172797.27
 STEP:  65 TIME =     0.05 SECS, INTEGRAL =      2.73 TIME LEFT: 172797.22
 STEP:  66 TIME =     0.03 SECS, INTEGRAL =      2.76 TIME LEFT: 172797.19
 STEP:  67 TIME =     0.05 SECS, INTEGRAL =      2.81 TIME LEFT: 172797.14
 STEP:  68 TIME =     0.03 SECS, INTEGRAL =      2.84 TIME LEFT: 172797.11
 STEP:  69 TIME =     0.05 SECS, INTEGRAL =      2.89 TIME LEFT: 172797.07
 STEP:  70 TIME =     0.03 SECS, INTEGRAL =      2.92 TIME LEFT: 172797.04
 STEP:  71 TIME =     0.03 SECS, INTEGRAL =      2.95 TIME LEFT: 172797.00
 STEP:  72 TIME =     0.05 SECS, INTEGRAL =      3.00 TIME LEFT: 172796.96
           INITIAL VELOCITY IN DRC (Angstroms/Femtosecond)
        -0.00229         0.00699        -0.00222
         0.00466         0.00164        -0.00544
         0.00161        -0.01317         0.01028
        -0.00216         0.00860        -0.00113
         0.00098        -0.00413         0.00354
        -0.00426        -0.00204         0.01794
        -0.02972         0.01095        -0.03956
         0.01162        -0.01490         0.00370
        -0.00545         0.00812        -0.00418
        -0.00087        -0.00082        -0.00012
         0.35093         0.07474         0.26626
         0.04143         0.01540         0.02507
         0.08524         0.04045         0.04020
        -0.00827         0.00287        -0.00400
         0.00486        -0.00262        -0.00061
         0.00713        -0.00329         0.00713
         0.07759         0.00396         0.06758
         0.00257        -0.00199         0.00571
        -0.00186         0.00104        -0.00138
         0.00107         0.00248        -0.00024
         0.00817        -0.00781        -0.00161
        -0.05017        -0.00970         0.00088
         0.02254         0.00328        -0.02183
         0.01637         0.00577         0.00663

 GEOMETRY PRIORITY, STEP = 0.1000 ANGSTROMS



     POINT   POTENTIAL  +  ENERGY LOST   =   TOTAL      ERROR    REF%   MOVEMENT
       1      33.76119      0.00000         33.76119   0.00000     1   %  0.0000
       6      28.18842      1.18886         29.37727  -4.38391     2   %  0.4436
      11      25.54292      3.75635         29.29927  -4.46192     3   %  0.5002
      15      23.54663      5.73162         29.27825  -4.48294     4   %  0.5609
      19      21.65763      7.58480         29.24243  -4.51876     5   %  0.6312
      23      19.41731      9.80546         29.22276  -4.53842     6   %  0.7320
      27      17.99968     11.17852         29.17820  -4.58298     7   %  0.8029
      31      16.43699     12.73680         29.17379  -4.58740     8   %  0.8902
      36      14.91491     14.31940         29.23431  -4.52688     9   %  0.9862
      40      13.65758     15.57629         29.23387  -4.52732    10   %  1.0684
      44      12.49365     16.74199         29.23564  -4.52555    11   %  1.1504
      47      11.42068     17.81741         29.23810  -4.52309    12   %  1.2335
      52      10.47127     18.80161         29.27288  -4.48831    13   %  1.3175
      56       9.66749     19.60639         29.27388  -4.48731    14   %  1.3912
      60       8.80734     20.47176         29.27910  -4.48209    15   %  1.4754
      65       7.87852     21.33237         29.21089  -4.55029    16   %  1.5647
      69       7.05711     22.15434         29.21145  -4.54973    17   %  1.6562
      72       6.57635     22.63823         29.21458  -4.54660    18   %  1.7132
      76       5.85209     23.42135         29.27344  -4.48774    19   %  1.8102
      80       5.39163     23.87130         29.26293  -4.49825    20   %  1.8694
      85       4.78564     24.48607         29.27171  -4.48947    21   %  1.9559
      89       4.35288     24.93296         29.28584  -4.47534    22   %  2.0236
      92       3.98216     25.29599         29.27816  -4.48303    23   %  2.0824
      96       3.50236     25.77155         29.27392  -4.48727    24   %  2.1653
     100       3.18251     26.05051         29.23302  -4.52816    25   %  2.2179
     104       2.90553     26.36985         29.27539  -4.48580    26   %  2.2822
     108       2.60090     26.70653         29.30742  -4.45376    27   %  2.3565
     112       2.33326     26.96688         29.30013  -4.46105    28   %  2.4203
     116       2.05124     27.25350         29.30474  -4.45644    29   %  2.4964
     120       1.82806     27.47616         29.30422  -4.45697    30   %  2.5620
     124       1.66103     27.65218         29.31321  -4.44798    31   %  2.6192
     127       1.51578     27.80830         29.32408  -4.43711    32   %  2.6718
     131       1.38811     28.04488         29.43300  -4.32819    33   %  2.7297
     135       1.29722     28.22974         29.52696  -4.23422    34   %  2.7645
     139       1.21134     28.45097         29.66231  -4.09887    35   %  2.8028
     143       1.14250     28.67558         29.81808  -3.94311    36   %  2.8380
     147       1.07925     28.94834         30.02759  -3.73360    37   %  2.8771
     152       1.01542     29.19750         30.21292  -3.54827    38   %  2.9089
     156       0.96232     29.45764         30.41996  -3.34122    39   %  2.9390
     161       0.90889     29.72815         30.63704  -3.12415    40   %  2.9690
     166       0.85844     30.00345         30.86189  -2.89930    41   %  2.9967
     171       0.81584     30.28650         31.10234  -2.65885    42   %  3.0234
     176       0.77184     30.57356         31.34540  -2.41579    43   %  3.0486
     181       0.73717     30.83668         31.57385  -2.18733    44   %  3.0697
     186       0.70782     31.12367         31.83149  -1.92969    45   %  3.0927
     192       0.66949     31.46789         32.13738  -1.62381    46   %  3.1181
     197       0.63970     31.75585         32.39555  -1.36563    47   %  3.1380
     203       0.60861     32.09992         32.70853  -1.05265    48   %  3.1633
     209       0.58017     32.44292         33.02310  -0.73809    49   %  3.1895
     214       0.56228     32.72739         33.28967  -0.47151    50   %  3.2132
     220       0.53758     33.06955         33.60712  -0.15406    51   %  3.2416
     226       0.51391     33.41164         33.92555   0.16436    52   %  3.2700
     232       0.49394     33.75400         34.24794   0.48675    53   %  3.2977
     238       0.48997     34.09755         34.58751   0.82633    54   %  3.3248
     244       0.48005     34.44286         34.92291   1.16172    55   %  3.3511
     250       0.42972     34.78560         35.21532   1.45413    56   %  3.3763
     256       0.41352     35.12647         35.53999   1.77880    57   %  3.4004
     262       0.39885     35.46341         35.86225   2.10107    58   %  3.4236
     269       0.37501     35.86211         36.23712   2.47594    59   %  3.4485
     275       0.36199     36.20518         36.56717   2.80599    60   %  3.4699
     281       0.36079     36.54371         36.90450   3.14331    61   %  3.4906
     288       0.34903     36.94095         37.28998   3.52879    62   %  3.5151
     294       0.33619     37.28897         37.62516   3.86397    63   %  3.5348
     301       0.34846     37.69517         38.04363   4.28244    64   %  3.5566
     307       0.32162     38.04191         38.36353   4.60234    65   %  3.5752
     314       0.30906     38.44015         38.74921   4.98802    66   %  3.5976
     320       0.30060     38.78489         39.08550   5.32431    67   %  3.6156
     326       0.29320     39.12907         39.42226   5.66108    68   %  3.6334
     333       0.27959     39.53190         39.81149   6.05031    69   %  3.6526
     339       0.27218     39.87400         40.14617   6.38499    70   %  3.6696
     345       0.26514     40.22097         40.48610   6.72492    71   %  3.6866
     352       0.23951     40.61931         40.85882   7.09763    72   %  3.7072
     359       0.22579     41.01976         41.24555   7.48436    73   %  3.7247
     365       0.21920     41.35898         41.57818   7.81699    74   %  3.7405
     372       0.21495     41.75215         41.96709   8.20591    75   %  3.7602
     379       0.20706     42.15053         42.35760   8.59641    76   %  3.7765
     385       0.18616     42.49198         42.67814   8.91696    77   %  3.7915
     392       0.18188     42.88344         43.06533   9.30414    78   %  3.8100
     399       0.17525     43.27736         43.45261   9.69143    79   %  3.8251
     406       0.17238     43.66832         43.84070  10.07952    80   %  3.8433
     412       0.16846     44.00544         44.17390  10.41271    81   %  3.8569
     419       0.16436     44.39904         44.56339  10.80221    82   %  3.8709
     426       0.16551     44.78871         44.95422  11.19303    83   %  3.8884
     433       0.15682     45.18363         45.34046  11.57927    84   %  3.9020
     440       0.15730     45.57611         45.73340  11.97222    85   %  3.9195
     447       0.15171     45.98112         46.13284  12.37165    86   %  3.9343
     454       0.15087     46.35689         46.50775  12.74657    87   %  3.9503
     460       0.14112     46.73016         46.87129  13.11010    88   %  3.9633
     467       0.14377     47.10726         47.25103  13.48984    89   %  3.9796
     474       0.13673     47.48191         47.61864  13.85746    90   %  3.9933
     481       0.12784     47.85277         47.98061  14.21942    91   %  4.0062
     487       0.13202     48.23538         48.36740  14.60621    92   %  4.0228
     494       0.12414     48.61790         48.74204  14.98085    93   %  4.0351
     501       0.12424     49.00373         49.12797  15.36678    94   %  4.0513
     508       0.11612     49.38757         49.50369  15.74250    95   %  4.0638
     515      -0.11903     49.74576         49.62673  15.86554    96   %  4.0761
     522      -0.12248     50.16432         50.04183  16.28065    97   %  4.0910
     529      -0.12395     50.55111         50.42716  16.66598    98   %  4.1045
     536      -0.12723     50.93648         50.80925  17.04807    99   %  4.1175
     543      -0.12584     51.32175         51.19590  17.43472   100   %  4.1296


           INITIAL VELOCITY IN DRC (Angstroms/Femtosecond)
         0.00229        -0.00699         0.00222
        -0.00466        -0.00164         0.00544
        -0.00161         0.01317        -0.01028
         0.00216        -0.00860         0.00113
        -0.00098         0.00413        -0.00354
         0.00426         0.00204        -0.01794
         0.02972        -0.01095         0.03956
        -0.01162         0.01490        -0.00370
         0.00545        -0.00812         0.00418
         0.00087         0.00082         0.00012
        -0.35093        -0.07474        -0.26626
        -0.04143        -0.01540        -0.02507
        -0.08524        -0.04045        -0.04020
         0.00827        -0.00287         0.00400
        -0.00486         0.00262         0.00061
        -0.00713         0.00329        -0.00713
        -0.07759        -0.00396        -0.06758
        -0.00257         0.00199        -0.00571
         0.00186        -0.00104         0.00138
        -0.00107        -0.00248         0.00024
        -0.00817         0.00781         0.00161
         0.05017         0.00970        -0.00088
        -0.02254        -0.00328         0.02183
        -0.01637        -0.00577        -0.00663

 GEOMETRY PRIORITY, STEP = 0.1000 ANGSTROMS



     POINT   POTENTIAL  +  ENERGY LOST   =   TOTAL      ERROR    REF%   MOVEMENT
       1      33.76123      0.00000         33.76123   0.00000     1   %  0.0000
       3      30.81293      0.00729         30.82022  -2.94101     2   %  0.3818
       7      28.82611      1.65055         30.47666  -3.28456     3   %  0.4133
      12      25.97788      4.47641         30.45429  -3.30694     4   %  0.4780
      16      23.98383      6.45724         30.44106  -3.32016     5   %  0.5379
      21      21.47071      8.92404         30.39475  -3.36648     6   %  0.6287
      25      19.65149     10.72449         30.37598  -3.38525     7   %  0.7075
      29      17.74843     12.63047         30.37890  -3.38233     8   %  0.8019
      34      16.10407     14.18867         30.29273  -3.46849     9   %  0.8869
      38      14.68720     15.60316         30.29036  -3.47086    10   %  0.9707
      42      13.37021     16.92126         30.29147  -3.46976    11   %  1.0549
      47      12.30716     17.95757         30.26473  -3.49649    12   %  1.1258
      53      11.03433     19.22340         30.25773  -3.50349    13   %  1.2186
      59       9.85887     20.36217         30.22104  -3.54018    14   %  1.3081
      64       8.90121     21.31648         30.21769  -3.54353    15   %  1.3877
      69       7.99415     22.22603         30.22018  -3.54104    16   %  1.4675
      73       7.16370     23.05966         30.22337  -3.53786    17   %  1.5438
      78       6.50425     23.73592         30.24017  -3.52105    18   %  1.6072
      81       5.86849     24.37599         30.24448  -3.51675    19   %  1.6679
      85       5.31407     24.92716         30.24123  -3.52000    20   %  1.7205
      88       4.82010     25.41224         30.23234  -3.52888    21   %  1.7672
      91       4.37486     25.85142         30.22628  -3.53495    22   %  1.8110
      94       3.97344     26.24941         30.22285  -3.53838    23   %  1.8561
      97       3.60770     26.61381         30.22151  -3.53972    24   %  1.9059
      99       3.27649     26.94165         30.21815  -3.54308    25   %  1.9588
     102       2.95159     27.25211         30.20370  -3.55753    26   %  2.0180
     105       2.71428     27.53556         30.24984  -3.51139    27   %  2.0821
     109       2.44407     27.79841         30.24248  -3.51875    28   %  2.1523
     111       2.19857     28.04450         30.24307  -3.51816    29   %  2.2278
     115       1.98179     28.26829         30.25008  -3.51115    30   %  2.2999
     118       1.78183     28.50578         30.28761  -3.47362    31   %  2.3722
     121       1.61653     28.74087         30.35740  -3.40382    32   %  2.4379
     125       1.45936     28.97817         30.43752  -3.32370    33   %  2.4997
     128       1.31228     29.21614         30.52842  -3.23281    34   %  2.5617
     131       1.17371     29.45485         30.62856  -3.13267    35   %  2.6235
     135       1.03934     29.69320         30.73255  -3.02868    36   %  2.6824
     138       0.90940     29.93525         30.84465  -2.91658    37   %  2.7408
     142       0.79091     30.17331         30.96422  -2.79700    38   %  2.7978
     146       0.67570     30.41559         31.09129  -2.66994    39   %  2.8550
     149       0.55963     30.65813         31.21776  -2.54346    40   %  2.9103
     153       0.39495     30.90270         31.29765  -2.46357    41   %  2.9650
     157       0.29190     31.14796         31.43986  -2.32136    42   %  3.0181
     161       0.25220     31.39153         31.64373  -2.11750    43   %  3.0698
     164       0.14825     31.64435         31.79260  -1.96863    44   %  3.1226
     168       0.06018     31.89299         31.95317  -1.80806    45   %  3.1735
     172      -0.02787     32.14556         32.11770  -1.64353    46   %  3.2239
     176      -0.11292     32.40001         32.28709  -1.47414    47   %  3.2736
     180      -0.09420     32.60540         32.51120  -1.25002    48   %  3.3138
     184      -0.19055     32.91406         32.72351  -1.03771    49   %  3.3712
     189      -0.26490     33.17657         32.91167  -0.84956    50   %  3.4190
     193      -0.33782     33.43900         33.10118  -0.66005    51   %  3.4663
     197      -0.39931     33.70239         33.30307  -0.45815    52   %  3.5123
     202      -0.46466     33.96762         33.50296  -0.25827    53   %  3.5572
     206      -0.52703     34.23408         33.70705  -0.05417    54   %  3.6012
     210      -0.58270     34.50208         33.91938   0.15815    55   %  3.6446
     215      -0.63066     34.77275         34.14209   0.38086    56   %  3.6879
     219      -0.69351     35.04426         34.35075   0.58953    57   %  3.7303
     224      -0.73974     35.31501         34.57527   0.81404    58   %  3.7709
     228      -0.80275     35.58619         34.78344   1.02221    59   %  3.8111
     233      -0.85534     35.85839         35.00305   1.24182    60   %  3.8510
     238      -0.85517     36.12994         35.27477   1.51354    61   %  3.8892
     242      -0.87917     36.39909         35.51992   1.75869    62   %  3.9253
     247      -0.91775     36.66730         35.74955   1.98833    63   %  3.9611
     251      -0.94985     36.89775         35.94790   2.18667    64   %  3.9903
     256      -1.02001     37.20398         36.18397   2.42274    65   %  4.0296
     260      -1.05170     37.46953         36.41783   2.65660    66   %  4.0617
     265      -1.08766     37.73427         36.64661   2.88538    67   %  4.0936
     269      -1.11901     37.99982         36.88081   3.11958    68   %  4.1248
     274      -1.15024     38.26490         37.11467   3.35344    69   %  4.1542
     278      -1.18063     38.53145         37.35082   3.58959    70   %  4.1828
     283      -1.20699     38.79480         37.58781   3.82659    71   %  4.2116
     287      -1.23323     39.05880         37.82557   4.06434    72   %  4.2392
     292      -1.25833     39.32280         38.06447   4.30325    73   %  4.2650
     296      -1.28404     39.58545         38.30141   4.54019    74   %  4.2905
     301      -1.30820     39.84709         38.53889   4.77767    75   %  4.3159
     306      -1.33109     40.10702         38.77593   5.01471    76   %  4.3404
     310      -1.35422     40.36768         39.01346   5.25223    77   %  4.3631
     315      -1.36772     40.62749         39.25977   5.49855    78   %  4.3857
     319      -1.38950     40.88710         39.49760   5.73637    79   %  4.4085
     324      -1.36221     41.14630         39.78409   6.02287    80   %  4.4304
     328      -1.38109     41.40647         40.02538   6.26415    81   %  4.4506
     333      -1.39890     41.66582         40.26693   6.50570    82   %  4.4709
     337      -1.41697     41.92441         40.50744   6.74622    83   %  4.4916
     342      -1.43485     42.18344         40.74859   6.98736    84   %  4.5111
     346      -1.45052     42.44290         40.99238   7.23115    85   %  4.5293
     351      -1.46724     42.70156         41.23432   7.47309    86   %  4.5478
     355      -1.48325     42.96247         41.47922   7.71799    87   %  4.5663
     360      -1.49833     43.22152         41.72319   7.96196    88   %  4.5838
     364      -1.52442     43.48136         41.95693   8.19571    89   %  4.6004
     369      -1.53901     43.74092         42.20191   8.44068    90   %  4.6172
     373      -1.55355     44.00048         42.44693   8.68570    91   %  4.6341
     378      -1.57113     44.25852         42.68739   8.92617    92   %  4.6498
     382      -1.58501     44.51850         42.93349   9.17227    93   %  4.6648
     387      -1.59233     44.77638         43.18405   9.42282    94   %  4.6803
     391      -1.60687     45.03543         43.42857   9.66734    95   %  4.6955
     396      -1.61970     45.29479         43.67509   9.91386    96   %  4.7096
     400      -1.63217     45.55587         43.92371  10.16248    97   %  4.7233
     405      -1.65064     45.81387         44.16323  10.40200    98   %  4.7375
     409      -1.66333     46.07156         44.40824  10.64701    99   %  4.7515
     414      -1.67596     46.33035         44.65439  10.89317   100   %  4.7643



 **********************
 *                    *
 * JOB ENDED NORMALLY *
 *                    *
 **********************



 TOTAL JOB TIME:            25.91 SECONDS

 == MOPAC DONE ==
