 *******************************************************************************
 ** Site#: 37037        For non-commercial use only           Version 21.158W **
 *******************************************************************************
 ** Cite this program as: MOPAC2016, Version: 21.158W, James J. P. Stewart,   **
 ** Stewart Computational Chemistry, web: HTTP://OpenMOPAC.net. Days left: 363**
 *******************************************************************************
 **                                                                           **
 **                                MOPAC2016                                  **
 **                                                                           **
 *******************************************************************************

                              PM7 CALCULATION RESULTS

 *******************************************************************************
 *  CALCULATION DONE:                                Wed Jun  9 11:39:15 2021  *
 *  SYMMETRY   - SYMMETRY CONDITIONS TO BE IMPOSED
 *  T=         - A TIME OF 172800.0 SECONDS REQUESTED
 *  DUMP=N     - RESTART FILE WRITTEN EVERY 7200.0 SECONDS REQUESTED
 *******************************************************************************



                    PARAMETER DEPENDENCE DATA

        REFERENCE ATOM      FUNCTION NO.    DEPENDENT ATOM(S)
            2                  1               3

             DESCRIPTIONS OF THE FUNCTIONS USED
   1      BOND LENGTH    IS SET EQUAL TO THE REFERENCE BOND LENGTH   
 
      symmetry
      Transition state for 2-Methyl hexa-3,5-diene <=> 2-Methyl hexa-2,4-diene

  ATOM    CHEMICAL      BOND LENGTH      BOND ANGLE     TWIST ANGLE 
 NUMBER    SYMBOL       (ANGSTROMS)      (DEGREES)       (DEGREES) 
   (I)                     NA:I           NB:NA:I       NC:NB:NA:I       NA    NB    NC 
     1       C          0.00000000       0.0000000       0.0000000        0     0     0
     2       H          1.40000000  *    0.0000000       0.0000000        1     0     0
     3       C          1.40000000     128.0000500  *    0.0000000        2     1     0
     4       C          1.40000000  *   99.9999980  *   54.9999770  *     3     2     1
     5       C          1.54000000  *   84.0000010  *   64.9999920  *     1     2     3
     6       C          1.54000000  *  113.9999960  *  109.9999890  *     1     2     5
     7       H          2.10000000  *  118.9999970  *  111.0000290  *     1     2     6
     8       H          2.10000000  *  148.9999890  *  -34.9999890  *     4     3     2
     9       H          1.00000000  *  118.0000060  *  174.9999860  *     4     3     8
    10       H          1.00000000  *   85.9999940  * -118.9999930  *     3     2     4
    11       H          1.00000000  *  112.9999890  * -111.9999850  *     3     2    10
    12       C          1.00000000  *   34.0000100  *   45.9999930  *     7     1     2
    13       C          1.00000000  *   34.0000050  *    9.0000100  *     8     4     3
    14       H          1.09000000  *  109.4712220  *    0.0000040  *     5     1     2
    15       H          1.09000000  *  109.4712200  *  119.9999970  *     5     1    14
    16       H          1.09000000  *  109.4712240  *  119.9999980  *     5     1    15
    17       H          1.09000000  *  109.4712150  *   -0.0000010  *     6     1     2
    18       H          1.09000000  *  109.4712160  *  120.0000000  *     6     1    17
    19       H          1.09000000  *  109.4712160  *  120.0000010  *     6     1    18
 


          CARTESIAN COORDINATES 

    NO.       ATOM           X           Y           Z

     1         C          0.0000      0.0000      0.0000
     2         H          1.4000      0.0000      0.0000
     3         C          2.2619      1.1032      0.0000
     4         C          1.7884      1.7817      1.1294
     5         C          0.1610      0.6473     -1.3881
     6         C         -0.6264     -1.4015     -0.1226
     7         H         -1.0181      0.5063      1.7656
     8         H          0.1725      2.3336      2.3517
     9         H          2.4592      2.2064      1.7374
    10         H          1.8744      1.3175     -0.8966
    11         H          3.2261      0.8458     -0.0642
    12         C         -0.2764      0.7450      1.1387
    13         C          0.4777      1.7656      1.5873
    14         H          1.2210      0.7546     -1.6182
    15         H         -0.3121      0.0161     -2.1404
    16         H         -0.3121      1.6293     -1.3881
    17         H          0.1647     -2.1486     -0.1880
    18         H         -1.2436     -1.6015      0.7533
    19         H         -1.2436     -1.4464     -1.0199

 General Reference for PM7:
 "Optimization of Parameters for Semiempirical Methods VI: More Modifications to the 
 NDDO Approximations and Re-optimization of Parameters", J. J. P. Stewart, J. Mol. Mod., 1:32, 19 (2013)
 https://link.springer.com/article/10.1007/s00894-012-1667-x

           Empirical Formula: C7 H12  =    19 atoms



      MOLECULAR POINT GROUP   :   C1  


      RHF CALCULATION, NO. OF DOUBLY OCCUPIED LEVELS = 20


          Geometry optimization using EF

          DIAGONAL MATRIX USED AS START HESSIAN

 CYCLE:     1 TIME:   0.000 TIME LEFT:  2.00D  GRAD.:   618.599 HEAT:  99.91061
 CYCLE:     2 TIME:   0.016 TIME LEFT:  2.00D  GRAD.:   384.941 HEAT:  89.21771
 CYCLE:     3 TIME:   0.016 TIME LEFT:  2.00D  GRAD.:   210.753 HEAT:  75.61711
 CYCLE:     4 TIME:   0.000 TIME LEFT:  2.00D  GRAD.:   132.816 HEAT:  65.36945
 CYCLE:     5 TIME:   0.016 TIME LEFT:  2.00D  GRAD.:   185.511 HEAT:  59.20770
 CYCLE:     6 TIME:   0.000 TIME LEFT:  2.00D  GRAD.:    66.967 HEAT:  55.87367
 CYCLE:     7 TIME:   0.016 TIME LEFT:  2.00D  GRAD.:   110.613 HEAT:  55.36479
 CYCLE:     8 TIME:   0.000 TIME LEFT:  2.00D  GRAD.:    88.082 HEAT:  54.14877
 CYCLE:     9 TIME:   0.016 TIME LEFT:  2.00D  GRAD.:   124.957 HEAT:  53.99012
 CYCLE:    10 TIME:   0.000 TIME LEFT:  2.00D  GRAD.:    14.533 HEAT:  53.12864
 CYCLE:    11 TIME:   0.016 TIME LEFT:  2.00D  GRAD.:    18.925 HEAT:  52.92270
 CYCLE:    12 TIME:   0.000 TIME LEFT:  2.00D  GRAD.:     9.078 HEAT:  52.80407
 CYCLE:    13 TIME:   0.000 TIME LEFT:  2.00D  GRAD.:     7.214 HEAT:  52.71408
 CYCLE:    14 TIME:   0.016 TIME LEFT:  2.00D  GRAD.:    19.687 HEAT:  52.64564
 CYCLE:    15 TIME:   0.000 TIME LEFT:  2.00D  GRAD.:     7.480 HEAT:  52.56936
 CYCLE:    16 TIME:   0.000 TIME LEFT:  2.00D  GRAD.:     9.534 HEAT:  52.49401
 CYCLE:    17 TIME:   0.016 TIME LEFT:  2.00D  GRAD.:    20.647 HEAT:  52.25171
 CYCLE:    18 TIME:   0.000 TIME LEFT:  2.00D  GRAD.:    14.029 HEAT:  52.09729
 CYCLE:    19 TIME:   0.016 TIME LEFT:  2.00D  GRAD.:    71.629 HEAT:  51.78565
 CYCLE:    20 TIME:   0.000 TIME LEFT:  2.00D  GRAD.:    18.608 HEAT:  51.37095
 CYCLE:    21 TIME:   0.000 TIME LEFT:  2.00D  GRAD.:    11.618 HEAT:  51.08205
 CYCLE:    22 TIME:   0.016 TIME LEFT:  2.00D  GRAD.:    27.645 HEAT:  50.57429
 CYCLE:    23 TIME:   0.000 TIME LEFT:  2.00D  GRAD.:    12.613 HEAT:  50.28734
 CYCLE:    24 TIME:   0.000 TIME LEFT:  2.00D  GRAD.:     4.304 HEAT:  50.22458
 CYCLE:    25 TIME:   0.016 TIME LEFT:  2.00D  GRAD.:     9.566 HEAT:  50.13830
 CYCLE:    26 TIME:   0.000 TIME LEFT:  2.00D  GRAD.:     4.653 HEAT:  50.09856
 CYCLE:    27 TIME:   0.016 TIME LEFT:  2.00D  GRAD.:     6.116 HEAT:  50.08923
 CYCLE:    28 TIME:   0.000 TIME LEFT:  2.00D  GRAD.:     7.163 HEAT:  50.02249
 CYCLE:    29 TIME:   0.000 TIME LEFT:  2.00D  GRAD.:    23.248 HEAT:  49.96789
 CYCLE:    30 TIME:   0.016 TIME LEFT:  2.00D  GRAD.:     4.186 HEAT:  49.73852
 CYCLE:    31 TIME:   0.000 TIME LEFT:  2.00D  GRAD.:     5.100 HEAT:  49.68191
 CYCLE:    32 TIME:   0.016 TIME LEFT:  2.00D  GRAD.:     8.239 HEAT:  49.64165
 CYCLE:    33 TIME:   0.016 TIME LEFT:  2.00D  GRAD.:     2.961 HEAT:  49.63269
 CYCLE:    34 TIME:   0.000 TIME LEFT:  2.00D  GRAD.:    13.544 HEAT:  49.62200
 CYCLE:    35 TIME:   0.000 TIME LEFT:  2.00D  GRAD.:     2.963 HEAT:  49.61143
 CYCLE:    36 TIME:   0.016 TIME LEFT:  2.00D  GRAD.:     2.323 HEAT:  49.60697
 CYCLE:    37 TIME:   0.000 TIME LEFT:  2.00D  GRAD.:     4.457 HEAT:  49.60549
 CYCLE:    38 TIME:   0.016 TIME LEFT:  2.00D  GRAD.:     2.517 HEAT:  49.60737
 CYCLE:    39 TIME:   0.000 TIME LEFT:  2.00D  GRAD.:     0.906 HEAT:  49.60134

     GRADIENT =  0.90625 IS LESS THAN CUTOFF =  1.00000



 -------------------------------------------------------------------------------
 symmetry
      Transition state for 2-Methyl hexa-3,5-diene <=> 2-Methyl hexa-2,4-diene



     GEOMETRY OPTIMISED USING EIGENVECTOR FOLLOWING (EF).     
     SCF FIELD WAS ACHIEVED                                   


                              PM7 CALCULATION
                                                       MOPAC2016 (Version: 21.158W)
                                                       Wed Jun  9 11:39:15 2021
                                                       No. of days remaining = 363




          FINAL HEAT OF FORMATION =         49.60125 KCAL/MOL =     207.53165 KJ/MOL


          TOTAL ENERGY            =      -1019.43500 EV
          ELECTRONIC ENERGY       =      -4984.31477 EV  POINT GROUP:     C1  
          CORE-CORE REPULSION     =       3964.87977 EV
          COSMO AREA              =        152.59 SQUARE ANGSTROMS
          COSMO VOLUME            =        149.41 CUBIC ANGSTROMS

          GRADIENT NORM           =          0.90625 = 0.20791 PER ATOM
          IONIZATION POTENTIAL    =          8.351549 EV
          HOMO LUMO ENERGIES (EV) =         -8.352 -0.051
          NO. OF FILLED LEVELS    =         20
          MOLECULAR WEIGHT        =         96.1718

          MOLECULAR DIMENSIONS (Angstroms)

            Atom       Atom       Distance
            H    19    H     9     5.83245
            H    11    H     8     4.25513
            H    16    H    18     4.09956


          SCF CALCULATIONS        =         50
 
          WALL-CLOCK TIME         =          0.312 SECONDS
          COMPUTATION TIME        =          1.156 SECONDS




  ATOM    CHEMICAL      BOND LENGTH      BOND ANGLE     TWIST ANGLE 
 NUMBER    SYMBOL       (ANGSTROMS)      (DEGREES)       (DEGREES) 
   (I)                     NA:I           NB:NA:I       NC:NB:NA:I       NA    NB    NC 
     1       C          0.00000000       0.0000000       0.0000000        0     0     0
     2       H          1.45701693  *    0.0000000       0.0000000        1     0     0
     3       C          1.45701693     131.2757319  *    0.0000000        2     1     0
     4       C          1.38214985  *  100.0644891  *   54.9041970  *     3     2     1
     5       C          1.51327738  *  100.8285838  *   71.3977341  *     1     2     3
     6       C          1.50821891  *  108.5565887  *  119.1914972  *     1     2     5
     7       H          2.17163649  *  123.4824547  *  105.8546104  *     1     2     6
     8       H          2.15571418  *  148.1351678  *  -44.8561697  *     4     3     2
     9       H          1.09174667  *  119.7317066  *  177.5945508  *     4     3     8
    10       H          1.08768752  *   82.8353462  * -122.0070330  *     3     2     4
    11       H          1.08382680  *  112.2019528  * -109.8740894  *     3     2    10
    12       C          1.09136282  *   36.2547235  *   36.0161646  *     7     1     2
    13       C          1.08908281  *   35.3963766  *   18.1131128  *     8     4     3
    14       H          1.09546012  *  112.1465310  *   55.6355393  *     5     1     2
    15       H          1.09943000  *  110.1596280  *  119.4709134  *     5     1    14
    16       H          1.09785590  *  112.2313730  *  118.4011427  *     5     1    15
    17       H          1.09671356  *  111.4577632  *  -57.7460089  *     6     1     2
    18       H          1.09674256  *  111.5837079  *  119.9701263  *     6     1    17
    19       H          1.09796445  *  111.8593947  *  120.2149886  *     6     1    18

                             CARTESIAN COORDINATES

   1    C        0.000000000     0.000000000     0.000000000
   2    H        1.457016929     0.000000000     0.000000000
   3    C        2.418186817     1.095011770     0.000000000
   4    C        1.989494695     1.792696854     1.113461633
   5    C       -0.284301445     0.474134958    -1.408679228
   6    C       -0.479977279    -1.405456578     0.262750652
   7    H       -1.198051900     0.806592793     1.621753601
   8    H        0.343138643     2.606630759     2.242233958
   9    H        2.716190076     2.123629601     1.857980365
  10    H        2.013129097     1.270054437    -0.994159165
  11    H        3.441460471     0.741754193    -0.052921098
  12    C       -0.277125499     0.947767145     1.053390015
  13    C        0.621950138     1.894097212     1.467210432
  14    H        0.200635434    -0.155945292    -2.162249384
  15    H       -1.365488785     0.447783555    -1.606380701
  16    H        0.035794756     1.511788039    -1.570240592
  17    H       -0.091254757    -2.108341925    -0.483994038
  18    H       -0.157819778    -1.764268757     1.247795120
  19    H       -1.575242785    -1.475894465     0.231800633


           Empirical Formula: C7 H12  =    19 atoms



      MOLECULAR POINT GROUP   :   C1  


                  EIGENVALUES  
 -29.90652 -27.11106 -25.10409 -23.96898 -21.95884 -19.08767 -18.00884 -16.46708
 -15.15688 -14.88545 -14.36225 -14.04770 -13.39325 -13.08120 -12.44547 -12.15400
 -12.07030 -11.72641  -9.62397  -8.35155  -0.05087   1.36938   4.42322   4.51757
   4.60050   4.92531   5.27657   5.47746   5.77919   5.86797   5.87997   5.90379
   5.96692   6.08316   6.26668   6.35176   6.42239   6.61125   7.02590   7.13058


              NET ATOMIC CHARGES AND DIPOLE CONTRIBUTIONS

  ATOM NO.   TYPE          CHARGE      No. of ELECS.   s-Pop       p-Pop       
    1          C          -0.135224        4.1352     1.07580     3.05942
    2          H           0.238371        0.7616     0.76163
    3          C          -0.404112        4.4041     1.08454     3.31958
    4          C          -0.094557        4.0946     1.08632     3.00824
    5          C          -0.431646        4.4316     1.05161     3.38003
    6          C          -0.450519        4.4505     1.05143     3.39909
    7          H           0.142705        0.8573     0.85730
    8          H           0.149079        0.8509     0.85092
    9          H           0.143331        0.8567     0.85667
   10          H           0.166960        0.8330     0.83304
   11          H           0.144638        0.8554     0.85536
   12          C          -0.112289        4.1123     1.09578     3.01651
   13          C          -0.229958        4.2300     1.07790     3.15206
   14          H           0.140887        0.8591     0.85911
   15          H           0.148596        0.8514     0.85140
   16          H           0.148138        0.8519     0.85186
   17          H           0.145339        0.8547     0.85466
   18          H           0.144191        0.8558     0.85581
   19          H           0.146071        0.8539     0.85393
 DIPOLE           X         Y         Z       TOTAL
 POINT-CHG.     0.370    -0.509    -0.218     0.666
 HYBRID        -0.237    -0.076    -0.070     0.258
 SUM            0.133    -0.585    -0.288     0.665


          ATOMIC ORBITAL ELECTRON POPULATIONS

     Atom    s        px        py        pz   
    1  C   1.07580   1.14445   0.95519   0.95978
    2  H   0.76163
    3  C   1.08454   1.13626   1.09552   1.08779
    4  C   1.08632   1.01694   0.96764   1.02366
    5  C   1.05161   1.17067   1.15771   1.05165
    6  C   1.05143   1.16297   1.06705   1.16906
    7  H   0.85730
    8  H   0.85092
    9  H   0.85667
   10  H   0.83304
   11  H   0.85536
   12  C   1.09578   1.02703   0.96889   1.02059
   13  C   1.07790   0.99430   1.06924   1.08852
   14  H   0.85911
   15  H   0.85140
   16  H   0.85186
   17  H   0.85466
   18  H   0.85581
   19  H   0.85393
 *******************************************************************************
 ** Site#: 37037        For non-commercial use only           Version 21.158W **
 *******************************************************************************
 ** Cite this program as: MOPAC2016, Version: 21.158W, James J. P. Stewart,   **
 ** Stewart Computational Chemistry, web: HTTP://OpenMOPAC.net. Days left: 363**
 *******************************************************************************
 **                                                                           **
 **                                MOPAC2016                                  **
 **                                                                           **
 *******************************************************************************

                              PM7 CALCULATION RESULTS

 *******************************************************************************
 *  CALCULATION DONE:                                Wed Jun  9 11:39:15 2021  *
 *  OPT        - OPTIMIZE COORDINATES OF ALL ATOMS
 *  OLDGEO     - PREVIOUS GEOMETRY TO BE USED
 *  TS         - USE EF ROUTINE FOR TS SEARCH
 *  T=         - A TIME OF 172800.0 SECONDS REQUESTED
 *  DUMP=N     - RESTART FILE WRITTEN EVERY 7200.0 SECONDS REQUESTED
 *******************************************************************************
oldgeo ts opt
      Transition state for 2-Methyl hexa-3,5-diene <=> 2-Methyl hexa-2,4-diene
 Refine transition state
  ATOM    CHEMICAL      BOND LENGTH      BOND ANGLE     TWIST ANGLE 
 NUMBER    SYMBOL       (ANGSTROMS)      (DEGREES)       (DEGREES) 
   (I)                     NA:I           NB:NA:I       NC:NB:NA:I       NA    NB    NC 
     1       C          0.00000000       0.0000000       0.0000000        0     0     0
     2       H          1.45701693  *    0.0000000       0.0000000        1     0     0
     3       C          1.45701693  *  131.2757319  *    0.0000000        2     1     0
     4       C          1.38214985  *  100.0644891  *   54.9041970  *     3     2     1
     5       C          1.51327738  *  100.8285838  *   71.3977341  *     1     2     3
     6       C          1.50821891  *  108.5565887  *  119.1914972  *     1     2     5
     7       H          2.17163649  *  123.4824547  *  105.8546104  *     1     2     6
     8       H          2.15571418  *  148.1351678  *  -44.8561697  *     4     3     2
     9       H          1.09174667  *  119.7317066  *  177.5945508  *     4     3     8
    10       H          1.08768752  *   82.8353462  * -122.0070330  *     3     2     4
    11       H          1.08382680  *  112.2019528  * -109.8740894  *     3     2    10
    12       C          1.09136282  *   36.2547235  *   36.0161646  *     7     1     2
    13       C          1.08908281  *   35.3963766  *   18.1131128  *     8     4     3
    14       H          1.09546012  *  112.1465310  *   55.6355393  *     5     1     2
    15       H          1.09943000  *  110.1596280  *  119.4709134  *     5     1    14
    16       H          1.09785590  *  112.2313730  *  118.4011427  *     5     1    15
    17       H          1.09671356  *  111.4577632  *  -57.7460089  *     6     1     2
    18       H          1.09674256  *  111.5837079  *  119.9701263  *     6     1    17
    19       H          1.09796445  *  111.8593947  *  120.2149886  *     6     1    18
 


          CARTESIAN COORDINATES 

    NO.       ATOM           X           Y           Z

     1         C          0.0000      0.0000      0.0000
     2         H          1.4570      0.0000      0.0000
     3         C          2.4182      1.0950      0.0000
     4         C          1.9895      1.7927      1.1135
     5         C         -0.2843      0.4741     -1.4087
     6         C         -0.4800     -1.4055      0.2628
     7         H         -1.1981      0.8066      1.6218
     8         H          0.3431      2.6066      2.2422
     9         H          2.7162      2.1236      1.8580
    10         H          2.0131      1.2701     -0.9942
    11         H          3.4415      0.7418     -0.0529
    12         C         -0.2771      0.9478      1.0534
    13         C          0.6220      1.8941      1.4672
    14         H          0.2006     -0.1559     -2.1622
    15         H         -1.3655      0.4478     -1.6064
    16         H          0.0358      1.5118     -1.5702
    17         H         -0.0913     -2.1083     -0.4840
    18         H         -0.1578     -1.7643      1.2478
    19         H         -1.5752     -1.4759      0.2318

 General Reference for PM7:
 "Optimization of Parameters for Semiempirical Methods VI: More Modifications to the 
 NDDO Approximations and Re-optimization of Parameters", J. J. P. Stewart, J. Mol. Mod., 1:32, 19 (2013)
 https://link.springer.com/article/10.1007/s00894-012-1667-x

           Empirical Formula: C7 H12  =    19 atoms



      MOLECULAR POINT GROUP   :   C1  


      RHF CALCULATION, NO. OF DOUBLY OCCUPIED LEVELS = 20


          Transition state refinement using EF

          HESSIAN CALCULATED NUMERICALLY

 CYCLE:     1 TIME:   0.219 TIME LEFT:  2.00D  GRAD.:    34.080 HEAT:  49.60125
 CYCLE:     2 TIME:   0.016 TIME LEFT:  2.00D  GRAD.:    12.492 HEAT:  50.51926
 CYCLE:     3 TIME:   0.000 TIME LEFT:  2.00D  GRAD.:    43.551 HEAT:  50.04248
 CYCLE:     4 TIME:   0.016 TIME LEFT:  2.00D  GRAD.:    26.670 HEAT:  49.86457
 CYCLE:     5 TIME:   0.000 TIME LEFT:  2.00D  GRAD.:    28.563 HEAT:  49.82297
 CYCLE:     6 TIME:   0.016 TIME LEFT:  2.00D  GRAD.:     4.854 HEAT:  49.80735
 CYCLE:     7 TIME:   0.016 TIME LEFT:  2.00D  GRAD.:    15.042 HEAT:  49.80106
 CYCLE:     8 TIME:   0.000 TIME LEFT:  2.00D  GRAD.:     5.566 HEAT:  49.79878
 CYCLE:     9 TIME:   0.016 TIME LEFT:  2.00D  GRAD.:     8.077 HEAT:  49.79710
 CYCLE:    10 TIME:   0.000 TIME LEFT:  2.00D  GRAD.:     4.288 HEAT:  49.79367
 CYCLE:    11 TIME:   0.016 TIME LEFT:  2.00D  GRAD.:     6.392 HEAT:  49.79134
 CYCLE:    12 TIME:   0.000 TIME LEFT:  2.00D  GRAD.:     1.231 HEAT:  49.79046
 CYCLE:    13 TIME:   0.000 TIME LEFT:  2.00D  GRAD.:     0.944 HEAT:  49.78949

     GRADIENT =  0.94405 IS LESS THAN CUTOFF =  1.00000



 -------------------------------------------------------------------------------
 ts opt
      Transition state for 2-Methyl hexa-3,5-diene <=> 2-Methyl hexa-2,4-diene
 Refine transition state


     GEOMETRY OPTIMISED USING EIGENVECTOR FOLLOWING (TS).     
     SCF FIELD WAS ACHIEVED                                   


                              PM7 CALCULATION
                                                       MOPAC2016 (Version: 21.158W)
                                                       Wed Jun  9 11:39:15 2021
                                                       No. of days remaining = 363




          FINAL HEAT OF FORMATION =         49.78949 KCAL/MOL =     208.31924 KJ/MOL


          TOTAL ENERGY            =      -1019.42747 EV
          ELECTRONIC ENERGY       =      -4990.98665 EV  POINT GROUP:     C1  
          CORE-CORE REPULSION     =       3971.55917 EV
          COSMO AREA              =        152.17 SQUARE ANGSTROMS
          COSMO VOLUME            =        149.18 CUBIC ANGSTROMS

          GRADIENT NORM           =          0.94405 = 0.21658 PER ATOM
          IONIZATION POTENTIAL    =          8.343389 EV
          HOMO LUMO ENERGIES (EV) =         -8.343 -0.058
          NO. OF FILLED LEVELS    =         20
          MOLECULAR WEIGHT        =         96.1718

          MOLECULAR DIMENSIONS (Angstroms)

            Atom       Atom       Distance
            H    19    H     9     5.95333
            H    14    H     8     4.24695
            H    16    H    18     3.60425


          SCF CALCULATIONS        =         68
 
          WALL-CLOCK TIME         =          0.656 SECONDS
          COMPUTATION TIME        =          2.531 SECONDS




  ATOM    CHEMICAL      BOND LENGTH      BOND ANGLE     TWIST ANGLE 
 NUMBER    SYMBOL       (ANGSTROMS)      (DEGREES)       (DEGREES) 
   (I)                     NA:I           NB:NA:I       NC:NB:NA:I       NA    NB    NC 
     1       C          0.00000000       0.0000000       0.0000000        0     0     0
     2       H          1.46328167  *    0.0000000       0.0000000        1     0     0
     3       C          1.45102154  *  130.1293983  *    0.0000000        2     1     0
     4       C          1.40270011  *  101.0204002  *   54.3992809  *     3     2     1
     5       C          1.51310641  *   99.3794441  *   65.9990841  *     1     2     3
     6       C          1.50902798  *  107.8039532  *  117.8342861  *     1     2     5
     7       H          2.16089800  *  118.3258531  *  101.8594313  *     1     2     6
     8       H          2.14463723  *  148.8092919  *  -33.7103003  *     4     3     2
     9       H          1.09163084  *  118.8313347  *  173.5457436  *     4     3     8
    10       H          1.08559333  *   87.6953425  * -121.2534381  *     3     2     4
    11       H          1.08302420  *  111.8582691  * -111.5425342  *     3     2    10
    12       C          1.09163638  *   35.4392552  *   48.1028671  *     7     1     2
    13       C          1.08913551  *   34.7306504  *    8.4320286  *     8     4     3
    14       H          1.09548319  *  112.6986929  *   51.6394879  *     5     1     2
    15       H          1.10015998  *  109.6590960  *  119.2819022  *     5     1    14
    16       H          1.09843813  *  112.2260547  *  118.0251840  *     5     1    15
    17       H          1.09676520  *  111.5371266  *  -57.6857547  *     6     1     2
    18       H          1.09686260  *  111.7523319  *  120.0405300  *     6     1    17
    19       H          1.09812403  *  111.6499930  *  120.1811289  *     6     1    18

                             CARTESIAN COORDINATES

   1    C        0.000000000     0.000000000     0.000000000
   2    H        1.463281666     0.000000000     0.000000000
   3    C        2.398488302     1.109437725     0.000000000
   4    C        1.958487833     1.831033368     1.119494039
   5    C       -0.246593978     0.607229671    -1.363801501
   6    C       -0.461401900    -1.433543605     0.096054502
   7    H       -1.025314662     0.514495084     1.831257712
   8    H        0.336665974     2.470730346     2.368473819
   9    H        2.701334008     2.274654269     1.785104990
  10    H        2.044351699     1.350863248    -0.997403555
  11    H        3.426609409     0.770148096    -0.028123820
  12    C       -0.231227513     0.810574926     1.143193530
  13    C        0.629430606     1.822516675     1.543656221
  14    H        0.303334891     0.094510779    -2.160532945
  15    H       -1.316289617     0.538605316    -1.611579444
  16    H        0.011426224     1.674440013    -1.396266530
  17    H       -0.065272746    -2.040047359    -0.727431261
  18    H       -0.135629817    -1.903578292     1.032028592
  19    H       -1.556101167    -1.510360273     0.055940938


           Empirical Formula: C7 H12  =    19 atoms



      MOLECULAR POINT GROUP   :   C1  


                  EIGENVALUES  
 -29.97480 -27.13536 -24.97254 -24.01466 -22.07766 -19.09740 -17.87977 -16.47621
 -15.15203 -15.02867 -14.36596 -14.04498 -13.36301 -13.10687 -12.58713 -12.12924
 -12.02613 -11.84267  -9.53804  -8.34339  -0.05850   1.35595   4.31681   4.40738
   4.59113   5.08125   5.25090   5.43190   5.74807   5.78536   5.81735   5.89060
   5.91411   6.11692   6.31044   6.41215   6.45836   6.73351   6.94805   7.04178


              NET ATOMIC CHARGES AND DIPOLE CONTRIBUTIONS

  ATOM NO.   TYPE          CHARGE      No. of ELECS.   s-Pop       p-Pop       
    1          C          -0.087961        4.0880     1.07417     3.01379
    2          H           0.239476        0.7605     0.76052
    3          C          -0.435414        4.4354     1.08312     3.35229
    4          C          -0.096530        4.0965     1.08549     3.01104
    5          C          -0.433428        4.4334     1.05286     3.38057
    6          C          -0.457101        4.4571     1.05257     3.40453
    7          H           0.144977        0.8550     0.85502
    8          H           0.148234        0.8518     0.85177
    9          H           0.142178        0.8578     0.85782
   10          H           0.163446        0.8366     0.83655
   11          H           0.143063        0.8569     0.85694
   12          C          -0.137008        4.1370     1.09237     3.04463
   13          C          -0.225877        4.2259     1.07683     3.14905
   14          H           0.141787        0.8582     0.85821
   15          H           0.151530        0.8485     0.84847
   16          H           0.153863        0.8461     0.84614
   17          H           0.147686        0.8523     0.85231
   18          H           0.146741        0.8533     0.85326
   19          H           0.150339        0.8497     0.84966
 DIPOLE           X         Y         Z       TOTAL
 POINT-CHG.     0.076    -0.722    -0.364     0.812
 HYBRID        -0.136    -0.073    -0.089     0.178
 SUM           -0.060    -0.795    -0.453     0.917


          ATOMIC ORBITAL ELECTRON POPULATIONS

     Atom    s        px        py        pz   
    1  C   1.07417   1.09273   0.95564   0.96542
    2  H   0.76052
    3  C   1.08312   1.14543   1.11938   1.08749
    4  C   1.08549   1.01852   0.97618   1.01634
    5  C   1.05286   1.17122   1.15492   1.05443
    6  C   1.05257   1.16656   1.06237   1.17560
    7  H   0.85502
    8  H   0.85177
    9  H   0.85782
   10  H   0.83655
   11  H   0.85694
   12  C   1.09237   1.01536   0.98552   1.04376
   13  C   1.07683   0.99812   1.06212   1.08881
   14  H   0.85821
   15  H   0.84847
   16  H   0.84614
   17  H   0.85231
   18  H   0.85326
   19  H   0.84966
 *******************************************************************************
 ** Site#: 37037        For non-commercial use only           Version 21.158W **
 *******************************************************************************
 ** Cite this program as: MOPAC2016, Version: 21.158W, James J. P. Stewart,   **
 ** Stewart Computational Chemistry, web: HTTP://OpenMOPAC.net. Days left: 363**
 *******************************************************************************
 **                                                                           **
 **                                MOPAC2016                                  **
 **                                                                           **
 *******************************************************************************

                              PM7 CALCULATION RESULTS

 *******************************************************************************
 *  CALCULATION DONE:                                Wed Jun  9 11:39:15 2021  *
 *  OLDGEO     - PREVIOUS GEOMETRY TO BE USED
 *  FORCE      - FORCE CALCULATION SPECIFIED
 *  T=         - A TIME OF 172800.0 SECONDS REQUESTED
 *  DUMP=N     - RESTART FILE WRITTEN EVERY 7200.0 SECONDS REQUESTED
 *  ISOTOPE    - SAVE THE FORCE MATRIX FOR USE LATER
 *******************************************************************************
oldgeo force isotope
      Transition state for 2-Methyl hexa-3,5-diene <=> 2-Methyl hexa-2,4-diene
 Verify transition state
  ATOM    CHEMICAL      BOND LENGTH      BOND ANGLE     TWIST ANGLE 
 NUMBER    SYMBOL       (ANGSTROMS)      (DEGREES)       (DEGREES) 
   (I)                     NA:I           NB:NA:I       NC:NB:NA:I       NA    NB    NC 
     1       C          0.00000000       0.0000000       0.0000000        0     0     0
     2       H          1.46328167  *    0.0000000       0.0000000        1     0     0
     3       C          1.45102154  *  130.1293983  *    0.0000000        2     1     0
     4       C          1.40270011  *  101.0204002  *   54.3992809  *     3     2     1
     5       C          1.51310641  *   99.3794441  *   65.9990841  *     1     2     3
     6       C          1.50902798  *  107.8039532  *  117.8342861  *     1     2     5
     7       H          2.16089800  *  118.3258531  *  101.8594313  *     1     2     6
     8       H          2.14463723  *  148.8092919  *  -33.7103003  *     4     3     2
     9       H          1.09163084  *  118.8313347  *  173.5457436  *     4     3     8
    10       H          1.08559333  *   87.6953425  * -121.2534381  *     3     2     4
    11       H          1.08302420  *  111.8582691  * -111.5425342  *     3     2    10
    12       C          1.09163638  *   35.4392552  *   48.1028671  *     7     1     2
    13       C          1.08913551  *   34.7306504  *    8.4320286  *     8     4     3
    14       H          1.09548319  *  112.6986929  *   51.6394879  *     5     1     2
    15       H          1.10015998  *  109.6590960  *  119.2819022  *     5     1    14
    16       H          1.09843813  *  112.2260547  *  118.0251840  *     5     1    15
    17       H          1.09676520  *  111.5371266  *  -57.6857547  *     6     1     2
    18       H          1.09686260  *  111.7523319  *  120.0405300  *     6     1    17
    19       H          1.09812403  *  111.6499930  *  120.1811289  *     6     1    18
 


          CARTESIAN COORDINATES 

    NO.       ATOM           X           Y           Z

     1         C          0.0000      0.0000      0.0000
     2         H          1.4633      0.0000      0.0000
     3         C          2.3985      1.1094      0.0000
     4         C          1.9585      1.8310      1.1195
     5         C         -0.2466      0.6072     -1.3638
     6         C         -0.4614     -1.4335      0.0961
     7         H         -1.0253      0.5145      1.8313
     8         H          0.3367      2.4707      2.3685
     9         H          2.7013      2.2747      1.7851
    10         H          2.0444      1.3509     -0.9974
    11         H          3.4266      0.7701     -0.0281
    12         C         -0.2312      0.8106      1.1432
    13         C          0.6294      1.8225      1.5437
    14         H          0.3033      0.0945     -2.1605
    15         H         -1.3163      0.5386     -1.6116
    16         H          0.0114      1.6744     -1.3963
    17         H         -0.0653     -2.0400     -0.7274
    18         H         -0.1356     -1.9036      1.0320
    19         H         -1.5561     -1.5104      0.0559

 General Reference for PM7:
 "Optimization of Parameters for Semiempirical Methods VI: More Modifications to the 
 NDDO Approximations and Re-optimization of Parameters", J. J. P. Stewart, J. Mol. Mod., 1:32, 19 (2013)
 https://link.springer.com/article/10.1007/s00894-012-1667-x

           Empirical Formula: C7 H12  =    19 atoms



      MOLECULAR POINT GROUP   :   C1  


      RHF CALCULATION, NO. OF DOUBLY OCCUPIED LEVELS = 20



          HEAT OF FORMATION =      49.789493 KCALS/MOLE


          CARTESIAN COORDINATE DERIVATIVES

   NUMBER  ATOM         X            Y            Z

     1       C      0.047650    -0.115233     0.111763
     2       H     -0.012922     0.030435    -0.078926
     3       C      0.031353     0.026178    -0.029339
     4       C      0.044777    -0.028850     0.066334
     5       C      0.022095     0.028378     0.011140
     6       C     -0.000630     0.013610    -0.005152
     7       H      0.008811    -0.018444     0.015913
     8       H      0.002648    -0.040893    -0.016740
     9       H      0.028669     0.013132     0.007133
    10       H      0.008600    -0.002484     0.002725
    11       H     -0.008244    -0.002010    -0.000251
    12       C     -0.322944    -0.090435    -0.129721
    13       C      0.151876     0.196784     0.032881
    14       H     -0.022749    -0.005100    -0.003443
    15       H      0.004982    -0.001863     0.007823
    16       H      0.002920     0.005023    -0.003261
    17       H      0.007173     0.001061     0.015864
    18       H      0.002413    -0.012564    -0.004486
    19       H      0.003523     0.003276    -0.000259
 


          GRADIENT NORM =   0.49393

          MOLECULAR WEIGHT =   96.17



          ROTATIONAL CONSTANTS IN CM(-1)

          A =    0.13309438   B =    0.06546025   C =    0.05696580



           PRINCIPAL MOMENTS OF INERTIA IN UNITS OF 10**(-40)*GRAM-CM**2

          A =      210.3227   B =      427.6301   C =      491.3962


          ORIENTATION OF MOLECULE IN FORCE CALCULATION

    NO.       ATOM         X         Y         Z

     1          C      -0.5703   -0.6373   -0.3186
     2          H       0.8930   -0.6373   -0.3186
     3          C       1.8282    0.4722   -0.3186
     4          C       1.3882    1.1938    0.8009
     5          C      -0.8169   -0.0300   -1.6824
     6          C      -1.0317   -2.0708   -0.2226
     7          H      -1.5956   -0.1228    1.5126
     8          H      -0.2336    1.8335    2.0498
     9          H       2.1310    1.6374    1.4665
    10          H       1.4740    0.7136   -1.3160
    11          H       2.8563    0.1329   -0.3468
    12          C      -0.8015    0.1733    0.8246
    13          C       0.0591    1.1852    1.2250
    14          H      -0.2670   -0.5428   -2.4792
    15          H      -1.8866   -0.0987   -1.9302
    16          H      -0.5589    1.0372   -1.7149
    17          H      -0.6356   -2.6773   -1.0461
    18          H      -0.7059   -2.5408    0.7134
    19          H      -2.1264   -2.1476   -0.2627


    FIRST DERIVATIVES WILL BE USED IN THE CALCULATION OF SECOND DERIVATIVES

          ESTIMATED TIME TO COMPLETE CALCULATION =        0.00 SECONDS

    FOR POINT-GROUP C1   THERE ARE   1 UNIQUE SYMMETRY FUNCTIONS.

 STEP:   1 TIME =     0.00 SECS, INTEGRAL =      0.00 TIME LEFT: 172800.00
 STEP:   2 TIME =     0.02 SECS, INTEGRAL =      0.02 TIME LEFT: 172799.98
 STEP:   3 TIME =     0.02 SECS, INTEGRAL =      0.03 TIME LEFT: 172799.97
 STEP:   4 TIME =     0.02 SECS, INTEGRAL =      0.05 TIME LEFT: 172799.95
 STEP:   5 TIME =     0.00 SECS, INTEGRAL =      0.05 TIME LEFT: 172799.95
 STEP:   6 TIME =     0.02 SECS, INTEGRAL =      0.06 TIME LEFT: 172799.94
 STEP:   7 TIME =     0.02 SECS, INTEGRAL =      0.08 TIME LEFT: 172799.92
 STEP:   8 TIME =     0.02 SECS, INTEGRAL =      0.09 TIME LEFT: 172799.91
 STEP:   9 TIME =     0.02 SECS, INTEGRAL =      0.11 TIME LEFT: 172799.89
 STEP:  10 TIME =     0.02 SECS, INTEGRAL =      0.12 TIME LEFT: 172799.88
 STEP:  11 TIME =     0.00 SECS, INTEGRAL =      0.12 TIME LEFT: 172799.88
 STEP:  12 TIME =     0.02 SECS, INTEGRAL =      0.14 TIME LEFT: 172799.86
 STEP:  13 TIME =     0.02 SECS, INTEGRAL =      0.16 TIME LEFT: 172799.84
 STEP:  14 TIME =     0.02 SECS, INTEGRAL =      0.17 TIME LEFT: 172799.83
 STEP:  15 TIME =     0.02 SECS, INTEGRAL =      0.19 TIME LEFT: 172799.81
 STEP:  16 TIME =     0.02 SECS, INTEGRAL =      0.20 TIME LEFT: 172799.80
 STEP:  17 TIME =     0.02 SECS, INTEGRAL =      0.22 TIME LEFT: 172799.78
 STEP:  18 TIME =     0.00 SECS, INTEGRAL =      0.22 TIME LEFT: 172799.78
 STEP:  19 TIME =     0.00 SECS, INTEGRAL =      0.22 TIME LEFT: 172799.78
 STEP:  20 TIME =     0.00 SECS, INTEGRAL =      0.22 TIME LEFT: 172799.78
 STEP:  21 TIME =     0.02 SECS, INTEGRAL =      0.23 TIME LEFT: 172799.77
 STEP:  22 TIME =     0.02 SECS, INTEGRAL =      0.25 TIME LEFT: 172799.75
 STEP:  23 TIME =     0.02 SECS, INTEGRAL =      0.27 TIME LEFT: 172799.73
 STEP:  24 TIME =     0.02 SECS, INTEGRAL =      0.28 TIME LEFT: 172799.72
 STEP:  25 TIME =     0.02 SECS, INTEGRAL =      0.30 TIME LEFT: 172799.70
 STEP:  26 TIME =     0.02 SECS, INTEGRAL =      0.31 TIME LEFT: 172799.69
 STEP:  27 TIME =     0.02 SECS, INTEGRAL =      0.33 TIME LEFT: 172799.67
 STEP:  28 TIME =     0.02 SECS, INTEGRAL =      0.34 TIME LEFT: 172799.66
 STEP:  29 TIME =     0.02 SECS, INTEGRAL =      0.36 TIME LEFT: 172799.64
 STEP:  30 TIME =     0.02 SECS, INTEGRAL =      0.38 TIME LEFT: 172799.62
 STEP:  31 TIME =     0.02 SECS, INTEGRAL =      0.39 TIME LEFT: 172799.61
 STEP:  32 TIME =     0.02 SECS, INTEGRAL =      0.41 TIME LEFT: 172799.59
 STEP:  33 TIME =     0.00 SECS, INTEGRAL =      0.41 TIME LEFT: 172799.59
 STEP:  34 TIME =     0.00 SECS, INTEGRAL =      0.41 TIME LEFT: 172799.59
 STEP:  35 TIME =     0.00 SECS, INTEGRAL =      0.41 TIME LEFT: 172799.59
 STEP:  36 TIME =     0.00 SECS, INTEGRAL =      0.41 TIME LEFT: 172799.59
 STEP:  37 TIME =     0.02 SECS, INTEGRAL =      0.42 TIME LEFT: 172799.58
 STEP:  38 TIME =     0.02 SECS, INTEGRAL =      0.44 TIME LEFT: 172799.56
 STEP:  39 TIME =     0.02 SECS, INTEGRAL =      0.45 TIME LEFT: 172799.55
 STEP:  40 TIME =     0.02 SECS, INTEGRAL =      0.47 TIME LEFT: 172799.53
 STEP:  41 TIME =     0.02 SECS, INTEGRAL =      0.48 TIME LEFT: 172799.52
 STEP:  42 TIME =     0.02 SECS, INTEGRAL =      0.50 TIME LEFT: 172799.50
 STEP:  43 TIME =     0.02 SECS, INTEGRAL =      0.52 TIME LEFT: 172799.48
 STEP:  44 TIME =     0.02 SECS, INTEGRAL =      0.53 TIME LEFT: 172799.47
 STEP:  45 TIME =     0.00 SECS, INTEGRAL =      0.53 TIME LEFT: 172799.47
 STEP:  46 TIME =     0.00 SECS, INTEGRAL =      0.53 TIME LEFT: 172799.47
 STEP:  47 TIME =     0.02 SECS, INTEGRAL =      0.55 TIME LEFT: 172799.45
 STEP:  48 TIME =     0.02 SECS, INTEGRAL =      0.56 TIME LEFT: 172799.44
 STEP:  49 TIME =     0.02 SECS, INTEGRAL =      0.58 TIME LEFT: 172799.42
 STEP:  50 TIME =     0.02 SECS, INTEGRAL =      0.59 TIME LEFT: 172799.41
 STEP:  51 TIME =     0.00 SECS, INTEGRAL =      0.59 TIME LEFT: 172799.41
 STEP:  52 TIME =     0.00 SECS, INTEGRAL =      0.59 TIME LEFT: 172799.41
 STEP:  53 TIME =     0.00 SECS, INTEGRAL =      0.59 TIME LEFT: 172799.41
 STEP:  54 TIME =     0.02 SECS, INTEGRAL =      0.61 TIME LEFT: 172799.39
 STEP:  55 TIME =     0.02 SECS, INTEGRAL =      0.62 TIME LEFT: 172799.38
 STEP:  56 TIME =     0.02 SECS, INTEGRAL =      0.64 TIME LEFT: 172799.36
 STEP:  57 TIME =     0.02 SECS, INTEGRAL =      0.66 TIME LEFT: 172799.34

(To convert to Hartree/Bohr^2, multiply by (10^(-21) x N x a0^2)/(4.184 x 627.51) =  0.0642)


           FORCE MATRIX IN MILLIDYNES/ANGSTROM


                  C  1       H  2       C  3       C  4       C  5       C  6
 ------------------------------------------------------------------------------
     C    1  13.263480
     H    2   2.488239   2.155780
     C    3   2.797619   2.554862  12.115244
     C    4   1.758223   2.111635   6.083172  14.880457
     C    5   3.204462   0.707453   0.329193   0.269025  11.368027
     C    6   3.407359   0.372660   0.104719   0.064493   0.709135  11.444619
     H    7   0.827845   0.261946   0.231872   0.233411   0.035740   0.046092
     H    8   0.090149   0.007922   0.082172   0.773332   0.016269   0.011137
     H    9   0.206658   0.236992   0.835248   3.430103   0.038587   0.011465
     H   10   0.334661   0.615682   3.424056   0.894813   0.112972   0.021996
     H   11   0.034700   0.173185   3.523854   0.780549   0.012317   0.012538
     C   12   5.413183   1.920578   1.619953   2.264993   0.820450   0.743178
     C   13   2.099694   1.593442   2.170610   5.918181   0.291487   0.082766
     H   14   0.653321   0.035464   0.033921   0.029532   3.428097   0.011455
     H   15   0.709966   0.065761   0.049551   0.038269   3.382811   0.012968
     H   16   0.677759   0.022928   0.024067   0.018033   3.405144   0.045854
     H   17   0.699317   0.015234   0.012001   0.010796   0.014296   3.424840
     H   18   0.693157   0.014765   0.011419   0.010501   0.045650   3.425201
     H   19   0.710618   0.021692   0.010286   0.006516   0.010269   3.397357


                  H  7       H  8       H  9       H 10       H 11       C 12
 ------------------------------------------------------------------------------
     H    7   4.337972
     H    8   0.039801   4.397040
     H    9   0.029092   0.036015   4.343259
     H   10   0.044251   0.010032   0.033841   4.170808
     H   11   0.011781   0.008205   0.038394   0.458280   4.287991
     C   12   3.433936   0.784209   0.192249   0.270248   0.036009  14.685697
     C   13   0.854184   3.454468   0.826345   0.325266   0.100019   6.308983
     H   14   0.006358   0.001861   0.004079   0.023992   0.003210   0.058927
     H   15   0.003676   0.001596   0.005367   0.007997   0.001597   0.055586
     H   16   0.004044   0.003368   0.003029   0.036366   0.002415   0.036185
     H   17   0.004089   0.001827   0.002256   0.003152   0.002445   0.049351
     H   18   0.014032   0.001942   0.002800   0.002991   0.002595   0.028280
     H   19   0.012593   0.001638   0.001154   0.003444   0.001924   0.020892


                  C 13       H 14       H 15       H 16       H 17       H 18
 ------------------------------------------------------------------------------
     C   13  15.056687
     H   14   0.030404   4.219788
     H   15   0.041707   0.467288   4.188987
     H   16   0.017262   0.462299   0.464244   4.199162
     H   17   0.010570   0.015787   0.008828   0.002376   4.224563
     H   18   0.009360   0.001912   0.002427   0.007536   0.465402   4.223907
     H   19   0.012186   0.004834   0.015842   0.002187   0.467329   0.465294


                  H 19
 ------------------
     H   19   4.199480


          HEAT OF FORMATION =      49.789493 KCALS/MOLE

          ZERO POINT ENERGY      97.497 KCAL/MOL

         NOTE: SYSTEM IS NOT A GROUND STATE, THEREFORE ZERO POINT
         ENERGY IS NOT MEANINGFULL. ZERO POINT ENERGY PRINTED
         DOES NOT INCLUDE THE  1 IMAGINARY FREQUENCIES


           NORMAL COORDINATE ANALYSIS (Total motion = 1 Angstrom)


   Root No.       1         2         3         4         5         6         7         8

                 1 A       2 A       3 A       4 A       5 A       6 A       7 A       8 A   

               -2001.7     123.5     164.0     182.6     205.3     307.0     366.1     388.5
  
           1   -0.0465    0.0014   -0.0059    0.0002   -0.0084   -0.0005    0.0070   -0.0094
           2    0.0127   -0.0003    0.0146    0.0030    0.0117    0.0049   -0.0100    0.0311
           3    0.0106   -0.0030   -0.0173   -0.0060   -0.0033    0.0159   -0.0308   -0.0128
           4    0.4653    0.0016    0.0032    0.0013   -0.0138   -0.0106    0.0186   -0.0343
           5    0.2080   -0.0013    0.0291    0.0055   -0.0041   -0.0263    0.0098   -0.0141
           6    0.0014    0.0017   -0.0317   -0.0095   -0.0061    0.0183   -0.0364    0.0156
           7   -0.0194    0.0019   -0.0131    0.0058    0.0027   -0.0417    0.0245   -0.0004
           8   -0.0435   -0.0022    0.0268   -0.0066   -0.0376   -0.0094    0.0091   -0.0296
           9   -0.0128    0.0067   -0.0114    0.0116    0.0120   -0.0423    0.0017    0.0113
          10   -0.0178   -0.0023    0.0158   -0.0014    0.0034   -0.0172   -0.0102   -0.0162
          11    0.0128   -0.0002   -0.0265   -0.0038   -0.0249   -0.0271   -0.0018    0.0245
          12    0.0199    0.0039    0.0348    0.0076    0.0047   -0.0217   -0.0042   -0.0296
          13    0.0103    0.0079   -0.0101   -0.0190   -0.0347    0.0611   -0.0016   -0.0028
          14   -0.0023   -0.0026   -0.0294    0.0027    0.0231    0.0275    0.0405   -0.0059
          15    0.0025   -0.0051   -0.0342   -0.0013    0.0069    0.0145   -0.0051   -0.0321
          16    0.0035   -0.0023    0.0087    0.0232    0.0527    0.0226   -0.0093    0.0172
          17    0.0027    0.0013    0.0118   -0.0037   -0.0056    0.0002    0.0015    0.0235
          18   -0.0006    0.0041    0.0250   -0.0005    0.0036    0.0167    0.0537    0.0054
          19    0.0493   -0.0057   -0.0287   -0.0067   -0.0257   -0.0563    0.0054    0.0084
          20   -0.0382    0.0036    0.0313    0.0050    0.0364    0.0323   -0.0450   -0.0380
          21    0.0352   -0.0080   -0.0401   -0.0105   -0.0162   -0.0156   -0.0237    0.0172
          22   -0.0049   -0.0081    0.0201   -0.0109   -0.0034    0.0178   -0.0229    0.0379
          23   -0.0024    0.0041   -0.0403    0.0091    0.0351   -0.0117   -0.0388   -0.0697
          24   -0.0003   -0.0057    0.0484   -0.0111   -0.0334    0.0194   -0.0047    0.0862
          25    0.0002   -0.0049    0.0275   -0.0056    0.0038    0.0030   -0.0265   -0.0104
          26    0.0519   -0.0000   -0.0832   -0.0080   -0.0443   -0.0530    0.0124    0.0946
          27   -0.0343    0.0067    0.0578    0.0149    0.0168   -0.0269    0.0062   -0.0798
          28    0.0551    0.0066   -0.0375    0.0182    0.0215   -0.0522    0.0469    0.0255
          29    0.1073   -0.0021    0.0901   -0.0021   -0.0256    0.0057    0.0050   -0.1047
          30   -0.0149    0.0051    0.0115    0.0076    0.0071   -0.0342   -0.0069   -0.0141
          31    0.0034    0.0017   -0.0160    0.0036   -0.0061   -0.0392    0.0303    0.0018
          32    0.0066   -0.0034    0.0221   -0.0144   -0.0661   -0.0027    0.0236   -0.0307
          33    0.0037    0.0118   -0.0559    0.0235    0.0285   -0.0720    0.0290    0.0602
          34   -0.0006   -0.0029   -0.0063   -0.0043   -0.0163   -0.0304    0.0012   -0.0044
          35   -0.0198    0.0021    0.0210    0.0045    0.0211    0.0108   -0.0278   -0.0042
          36   -0.0187   -0.0054   -0.0208   -0.0079   -0.0101    0.0084   -0.0226    0.0170
          37    0.0213   -0.0043    0.0130   -0.0057   -0.0050   -0.0096   -0.0113    0.0065
          38    0.0095    0.0022   -0.0145    0.0045    0.0143   -0.0107   -0.0251   -0.0261
          39   -0.0004   -0.0029    0.0255   -0.0056   -0.0174    0.0095   -0.0120    0.0405
          40    0.0036    0.0400   -0.0012   -0.1955    0.0113    0.0576   -0.0073    0.0072
          41   -0.0008    0.0205   -0.0465   -0.1344    0.0846    0.0075    0.0797   -0.0309
          42   -0.0007    0.0021   -0.0175   -0.0345   -0.0005    0.0246   -0.0328   -0.0104
          43    0.0041    0.0148   -0.0087   -0.0582   -0.0269    0.0653   -0.0031    0.0005
          44   -0.0039   -0.0374   -0.0521    0.1978   -0.0488    0.0850    0.0557   -0.0205
          45    0.0064   -0.0256   -0.0356    0.1119   -0.0072   -0.0149   -0.0014   -0.0418
          46    0.0018   -0.0257   -0.0246    0.1779   -0.1084    0.1117    0.0010   -0.0046
          47    0.0007    0.0059   -0.0272   -0.0473    0.0421    0.0171    0.0431   -0.0074
          48   -0.0006    0.0057   -0.0666   -0.0723    0.0384    0.0320    0.0461   -0.0644
          49    0.0042   -0.2182    0.0135    0.0047    0.0859    0.0286   -0.0264    0.0275
          50    0.0043    0.0492   -0.0080    0.0060    0.0083    0.0055   -0.0619    0.0207
          51   -0.0004   -0.1347    0.0422   -0.0166    0.0086    0.0157    0.0949    0.0125
          52    0.0027    0.2185    0.0176    0.0616    0.0721    0.0376   -0.0075    0.0347
          53    0.0017   -0.0684    0.0432   -0.0040    0.0161    0.0082    0.0630    0.0439
          54   -0.0004   -0.1075    0.0379   -0.0138    0.0082    0.0164    0.0861    0.0103
          55    0.0005   -0.0138    0.0097    0.0232    0.0572    0.0240   -0.0114    0.0194
          56   -0.0035    0.0260   -0.0019   -0.0197   -0.0595   -0.0206    0.0158   -0.0023
          57   -0.0004    0.2697    0.0312    0.0351    0.0001    0.0245    0.0726    0.0136


   Root No.       9        10        11        12        13        14        15        16

                 9 A      10 A      11 A      12 A      13 A      14 A      15 A      16 A   

                 467.3     508.7     538.4     684.5     741.4     840.7     926.5     966.1
  
           1   -0.0657   -0.0228    0.0508    0.0003   -0.0100   -0.0002    0.0158   -0.0154
           2   -0.0018    0.0274    0.0122   -0.0119   -0.0067   -0.0029    0.0010   -0.0040
           3    0.0176    0.0028    0.0173   -0.0004   -0.0076   -0.0016    0.0064   -0.0123
           4   -0.0148   -0.0363    0.0712   -0.0337    0.0471   -0.0058   -0.0315   -0.0455
           5    0.0548    0.0188    0.0168    0.0291   -0.0364    0.0155    0.0016   -0.0129
           6    0.0033   -0.0358   -0.0154   -0.0612    0.0226   -0.0670   -0.0183   -0.0446
           7    0.0660    0.0185    0.0323   -0.0020    0.0179    0.0085    0.0186    0.0031
           8    0.0334    0.0106    0.0005    0.0081   -0.0065   -0.0002   -0.0036    0.0075
           9   -0.0071   -0.0109   -0.0202   -0.0155   -0.0027   -0.0113   -0.0009   -0.0030
          10    0.0144   -0.0105   -0.0259   -0.0191   -0.0317   -0.0085   -0.0000   -0.0067
          11    0.0036   -0.0330   -0.0274    0.0091   -0.0328   -0.0202   -0.0234   -0.0217
          12   -0.0133   -0.0007   -0.0170   -0.0167   -0.0076    0.0043    0.0099    0.0080
          13    0.0017    0.0062   -0.0092    0.0009   -0.0021   -0.0040    0.0018   -0.0036
          14   -0.0033   -0.0040   -0.0181   -0.0020    0.0023    0.0090    0.0074   -0.0274
          15    0.0101   -0.0203    0.0230    0.0017   -0.0042   -0.0217   -0.0154    0.0427
          16   -0.0042    0.0056    0.0034   -0.0065   -0.0066   -0.0063    0.0019   -0.0027
          17   -0.0236    0.0214    0.0357   -0.0240   -0.0182   -0.0177   -0.0253    0.0380
          18   -0.0052    0.0046   -0.0066   -0.0005   -0.0006   -0.0001    0.0055   -0.0071
          19   -0.0596    0.0986   -0.0643    0.0279    0.0703   -0.1153    0.1039    0.0438
          20    0.0618   -0.1041    0.0140   -0.0014   -0.0272    0.0981   -0.0982   -0.0409
          21    0.0085    0.1190   -0.0404   -0.0005    0.0105   -0.0873    0.0998   -0.0154
          22    0.0439   -0.0219    0.0015    0.0306    0.0113   -0.0638    0.0388   -0.0384
          23   -0.0426    0.0632   -0.0113   -0.0443    0.0041    0.1782   -0.0154   -0.0033
          24    0.0200   -0.0589    0.0105    0.0898    0.0728   -0.1279    0.0407   -0.0099
          25   -0.0058   -0.0197   -0.0308    0.0069   -0.0107    0.0015   -0.0172   -0.0190
          26    0.0151   -0.0960   -0.0302   -0.1032   -0.0583    0.1140    0.1554    0.1136
          27    0.0072    0.0559   -0.0045    0.0357   -0.0034   -0.0962   -0.0930   -0.0698
          28    0.0705    0.0397    0.0813    0.1638   -0.0448    0.0483   -0.0296   -0.0025
          29   -0.0184    0.0288    0.0149    0.0887   -0.1544    0.0613    0.1044    0.0258
          30   -0.0188   -0.0122   -0.0348   -0.0486   -0.0155   -0.0104    0.0377    0.0057
          31    0.0781    0.0088    0.0497   -0.0467    0.0908    0.0115   -0.0068   -0.0194
          32    0.0678   -0.0173    0.0407   -0.1544    0.2117    0.0027   -0.0511   -0.0517
          33    0.0184    0.0095    0.0267    0.1379   -0.0397    0.0146   -0.0649    0.0039
          34   -0.0464    0.0095   -0.0282    0.0167    0.0335    0.0181   -0.0320    0.0206
          35    0.0167   -0.0334    0.0041    0.0176    0.0254   -0.0073    0.0255    0.0034
          36    0.0041    0.0476    0.0009   -0.0085   -0.0197    0.0257   -0.0048   -0.0313
          37    0.0134   -0.0217   -0.0184   -0.0030   -0.0145    0.0024   -0.0044   -0.0046
          38   -0.0278    0.0201   -0.0137    0.0227    0.0441    0.0033    0.0118   -0.0033
          39   -0.0070   -0.0234    0.0056    0.0267    0.0393    0.0405    0.0031    0.0046
          40    0.0316    0.0304   -0.0351    0.0086   -0.0050    0.0025   -0.0069    0.0362
          41   -0.0176   -0.0413   -0.0196    0.0133    0.0157    0.0041    0.0162   -0.0131
          42    0.0386    0.0176    0.0067   -0.0020   -0.0137   -0.0139   -0.0236    0.0540
          43    0.0139    0.0164   -0.0227    0.0042   -0.0021    0.0005   -0.0016    0.0134
          44    0.0197   -0.0069   -0.0626    0.0099    0.0139    0.0062    0.0036    0.0287
          45   -0.0462   -0.0570    0.0806   -0.0088   -0.0087   -0.0294    0.0070   -0.0374
          46    0.0300    0.0211   -0.0484    0.0142   -0.0003    0.0042   -0.0052    0.0438
          47   -0.0091   -0.0101   -0.0118   -0.0035    0.0040    0.0046    0.0081   -0.0284
          48    0.0204   -0.0520   -0.0165    0.0264    0.0158   -0.0226   -0.0128    0.0981
          49    0.0326    0.0183   -0.0240   -0.0077    0.0041   -0.0012   -0.0246    0.0411
          50    0.0173    0.0265    0.0309   -0.0200   -0.0108   -0.0203   -0.0254    0.0502
          51   -0.0195    0.0070   -0.0161   -0.0036   -0.0015    0.0057   -0.0040   -0.0025
          52    0.0269    0.0185   -0.0337   -0.0098    0.0048    0.0024   -0.0341    0.0512
          53   -0.0254    0.0304   -0.0005   -0.0287   -0.0124   -0.0056   -0.0566    0.0710
          54   -0.0169    0.0053   -0.0133   -0.0032   -0.0023    0.0033   -0.0033   -0.0027
          55    0.0019    0.0074   -0.0030   -0.0060   -0.0034   -0.0036   -0.0035    0.0061
          56   -0.0907   -0.0020    0.0979   -0.0189   -0.0406   -0.0288    0.0357   -0.0501
          57   -0.0066    0.0065   -0.0198   -0.0045   -0.0003    0.0054   -0.0095    0.0020


   Root No.      17        18        19        20        21        22        23        24

                17 A      18 A      19 A      20 A      21 A      22 A      23 A      24 A   

                 992.1    1001.1    1015.4    1034.4    1045.3    1115.0    1157.3    1213.4
  
           1    0.0007    0.0040    0.0037   -0.0047    0.0041    0.0277    0.0334    0.0020
           2    0.0034    0.0126   -0.0041   -0.0050    0.0028   -0.0015   -0.0005   -0.0278
           3    0.0005   -0.0072    0.0102   -0.0091    0.0017    0.0038    0.0046    0.0249
           4    0.0024   -0.0037    0.0002    0.0085    0.0061   -0.0126    0.0704    0.0352
           5   -0.0066   -0.0086   -0.0084    0.0041   -0.0072   -0.0291    0.0045   -0.0491
           6   -0.0304    0.0303    0.0084    0.0268    0.0089   -0.0590    0.1272    0.1747
           7    0.0167   -0.0003    0.0006    0.0244    0.0183   -0.0208    0.0083    0.0029
           8   -0.0139    0.0067    0.0025   -0.0137   -0.0120   -0.0207    0.0088    0.0153
           9    0.0095   -0.0051   -0.0009    0.0057    0.0046    0.0155   -0.0207    0.0008
          10   -0.0086    0.0021   -0.0014   -0.0020   -0.0065   -0.0011    0.0154   -0.0293
          11   -0.0037    0.0007   -0.0010    0.0208    0.0191    0.0073    0.0020   -0.0172
          12   -0.0061    0.0004    0.0003   -0.0192   -0.0187   -0.0097    0.0172   -0.0105
          13    0.0032    0.0250    0.0193    0.0046   -0.0106   -0.0157   -0.0268   -0.0122
          14    0.0102    0.0123   -0.0122   -0.0246    0.0167   -0.0018    0.0023    0.0128
          15    0.0040    0.0181   -0.0290   -0.0041    0.0096   -0.0036   -0.0120   -0.0241
          16   -0.0128   -0.0249   -0.0238    0.0027   -0.0035   -0.0181   -0.0195    0.0039
          17   -0.0018   -0.0121    0.0172    0.0069   -0.0026    0.0002   -0.0030    0.0165
          18   -0.0042   -0.0169    0.0314   -0.0184    0.0195   -0.0054   -0.0031   -0.0107
          19   -0.0821    0.0415   -0.0012   -0.0082    0.0203    0.0303   -0.0326    0.0608
          20    0.0741   -0.0515   -0.0050   -0.0155   -0.0512   -0.0200   -0.0537    0.1470
          21   -0.0688    0.0246   -0.0025    0.0063   -0.0213    0.0389   -0.0354    0.1037
          22    0.0522   -0.0227   -0.0048   -0.0029   -0.0633    0.0502   -0.0153    0.0301
          23   -0.1150    0.0436   -0.0048    0.0529    0.0433    0.0231   -0.0159    0.0132
          24    0.1165   -0.0423   -0.0032   -0.0181   -0.0512   -0.0181    0.0257   -0.0228
          25   -0.0329    0.0075   -0.0063   -0.0051   -0.0159    0.0127    0.0333   -0.1063
          26    0.0337   -0.0072    0.0034   -0.0675   -0.0617   -0.0284    0.0055    0.0309
          27   -0.0041   -0.0000    0.0029    0.0464    0.0485    0.0009   -0.0115    0.0502
          28   -0.0487    0.0083    0.0004   -0.0586   -0.0519    0.0600    0.0119   -0.0308
          29    0.1040   -0.0181    0.0065    0.0667    0.0520    0.1175   -0.0786    0.0468
          30    0.0510   -0.0110    0.0008    0.0437    0.0369    0.0164   -0.0379    0.0229
          31    0.0047   -0.0103   -0.0053    0.0010   -0.0028    0.0445   -0.0182   -0.0187
          32   -0.0174   -0.0268   -0.0140   -0.0457   -0.0425    0.1540   -0.0748   -0.0452
          33   -0.0787    0.0161    0.0027   -0.1046   -0.0797    0.0381   -0.0207    0.0438
          34    0.0224   -0.0092    0.0023   -0.0123    0.0050   -0.0130   -0.0160    0.0187
          35   -0.0152    0.0068   -0.0036    0.0027    0.0032    0.0105   -0.0067    0.0080
          36    0.0165   -0.0099    0.0005    0.0115   -0.0222    0.0053    0.0084   -0.0104
          37   -0.0165    0.0041   -0.0005   -0.0052   -0.0029    0.0123   -0.0109    0.0150
          38    0.0220   -0.0070   -0.0031    0.0036   -0.0148   -0.0103    0.0161   -0.0214
          39   -0.0195    0.0093   -0.0032    0.0228    0.0205   -0.0081    0.0031   -0.0039
          40    0.0034   -0.0375   -0.0677   -0.0283    0.0389    0.0333    0.0364    0.0135
          41   -0.0336   -0.0325    0.1036    0.0686   -0.0618   -0.0028   -0.0060   -0.0027
          42    0.0278    0.0024   -0.1424   -0.0765    0.0827    0.0270    0.0327    0.0081
          43    0.0016   -0.0084   -0.0183   -0.0057    0.0082    0.0063    0.0031   -0.0089
          44   -0.0281   -0.0892   -0.0012    0.0327   -0.0047    0.0261    0.0467    0.0082
          45    0.0127    0.1288    0.1018    0.0170   -0.0483   -0.0640   -0.0980   -0.0106
          46   -0.0142   -0.0626   -0.0264    0.0097    0.0060    0.0406    0.0406    0.0027
          47    0.0071    0.0204    0.0060   -0.0127    0.0048   -0.0125   -0.0100    0.0033
          48   -0.0620   -0.1094    0.0667    0.1147   -0.0738    0.0266    0.0261   -0.0201
          49    0.0233    0.0229    0.1051   -0.0225    0.0269    0.0323    0.0262    0.0038
          50    0.0026   -0.0449    0.1940   -0.0648    0.0756    0.0090    0.0064   -0.0150
          51    0.0093    0.0354   -0.0613    0.0289   -0.0322    0.0098    0.0101    0.0124
          52    0.0323    0.0629    0.0209    0.0232   -0.0187    0.0467    0.0395    0.0038
          53    0.0362    0.1013   -0.0917    0.0838   -0.0825    0.0443    0.0354    0.0419
          54    0.0036    0.0195   -0.0452    0.0208   -0.0234   -0.0001    0.0004    0.0123
          55   -0.0025   -0.0076    0.0005   -0.0001    0.0003   -0.0027   -0.0045    0.0028
          56   -0.0706   -0.1250   -0.1377    0.0069   -0.0123   -0.0866   -0.0859   -0.0158
          57    0.0134    0.0395   -0.0388    0.0232   -0.0270    0.0095    0.0110    0.0295


   Root No.      25        26        27        28        29        30        31        32

                25 A      26 A      27 A      28 A      29 A      30 A      31 A      32 A   

                1231.6    1245.6    1278.6    1287.4    1295.2    1296.9    1303.2    1314.9
  
           1   -0.0147    0.0133    0.0116   -0.0007   -0.0017    0.0030   -0.0065    0.0102
           2    0.0301    0.0223    0.0539    0.0071    0.0009    0.0063   -0.0115    0.0281
           3   -0.0337   -0.0116   -0.0029   -0.0036   -0.0004    0.0013    0.0019   -0.0073
           4   -0.0211    0.0605   -0.0118   -0.0049   -0.0033    0.0067   -0.0086    0.0429
           5   -0.0668    0.0329   -0.0094   -0.0028   -0.0024    0.0024    0.0147   -0.0009
           6    0.2519   -0.0858   -0.0071    0.0154    0.0271   -0.0129   -0.0196   -0.0168
           7   -0.0059   -0.0035   -0.0050   -0.0018    0.0006    0.0031   -0.0019    0.0100
           8    0.0018    0.0167   -0.0130   -0.0014   -0.0000    0.0028   -0.0006    0.0148
           9    0.0007    0.0097   -0.0134   -0.0009   -0.0008    0.0025    0.0003    0.0112
          10   -0.0009   -0.0126    0.0024    0.0011   -0.0018   -0.0033    0.0029   -0.0196
          11   -0.0098   -0.0083    0.0007   -0.0002   -0.0013   -0.0011    0.0018   -0.0058
          12   -0.0065   -0.0065    0.0045    0.0003   -0.0008   -0.0022    0.0020   -0.0070
          13    0.0001    0.0006   -0.0035    0.0006    0.0081    0.0062   -0.0173   -0.0087
          14   -0.0131   -0.0080   -0.0191    0.0101    0.0025   -0.0177   -0.0054   -0.0065
          15    0.0181    0.0096    0.0062    0.0082   -0.0007   -0.0091   -0.0016    0.0117
          16    0.0045   -0.0091   -0.0091   -0.0065   -0.0244   -0.0049   -0.0056   -0.0076
          17   -0.0157   -0.0170   -0.0351   -0.0045    0.0040   -0.0049    0.0083   -0.0189
          18    0.0106    0.0044    0.0008   -0.0195    0.0093   -0.0124   -0.0040    0.0030
          19   -0.0332   -0.0191    0.0225   -0.0012    0.0034   -0.0003   -0.0075    0.0152
          20   -0.0681   -0.0323    0.0733   -0.0073    0.0179    0.0065   -0.0243    0.0823
          21   -0.0779   -0.0399    0.0418   -0.0079    0.0106    0.0025   -0.0179    0.0534
          22    0.0822    0.2094   -0.1769    0.0028   -0.0203   -0.0169    0.0499   -0.0477
          23    0.0363    0.0947   -0.0861    0.0011   -0.0096   -0.0087    0.0250   -0.0270
          24   -0.0054   -0.0156   -0.0094   -0.0007   -0.0012   -0.0017    0.0028   -0.0093
          25    0.0100   -0.1163   -0.1431   -0.0210    0.0029    0.0441   -0.0235    0.1234
          26    0.0064    0.0310    0.0654    0.0110   -0.0020   -0.0243    0.0128   -0.0746
          27   -0.0290    0.0891    0.1201    0.0172   -0.0053   -0.0390    0.0242   -0.1163
          28    0.0602   -0.0901    0.0594    0.0169   -0.0003   -0.0366    0.0187   -0.1220
          29    0.1213   -0.0805   -0.0183    0.0033    0.0122    0.0053   -0.0222   -0.0009
          30    0.0117    0.0130   -0.0380   -0.0068    0.0024    0.0167   -0.0114    0.0544
          31    0.0141   -0.0311    0.0031    0.0000    0.0015    0.0016   -0.0033   -0.0090
          32    0.0464   -0.0609    0.0117    0.0038    0.0021   -0.0029   -0.0028   -0.0346
          33    0.0388    0.0308   -0.0608   -0.0134    0.0094    0.0359   -0.0315    0.0802
          34    0.0091    0.0022    0.0152    0.0018    0.0016   -0.0004   -0.0011   -0.0004
          35   -0.0058    0.0053    0.0141    0.0011    0.0004   -0.0016   -0.0016   -0.0036
          36    0.0033    0.0049    0.0068   -0.0001    0.0001   -0.0007   -0.0019    0.0000
          37    0.0021    0.0086    0.0056    0.0001    0.0015    0.0007   -0.0023    0.0056
          38    0.0019   -0.0099   -0.0136   -0.0007   -0.0008   -0.0006    0.0025   -0.0066
          39   -0.0054   -0.0066   -0.0063   -0.0004   -0.0005   -0.0017    0.0027   -0.0075
          40    0.0092   -0.0071    0.0340   -0.1004   -0.0571    0.0873    0.1491    0.0089
          41    0.0298   -0.0080    0.0593   -0.0271   -0.0587   -0.0190    0.1448    0.0716
          42   -0.0057    0.0017   -0.0159   -0.0451   -0.0034    0.0608    0.0133   -0.0335
          43   -0.0096    0.0094   -0.0062    0.0264    0.0113   -0.0247   -0.0350    0.0053
          44    0.0164    0.0332    0.0474   -0.1192    0.0140    0.1974   -0.0172   -0.0363
          45    0.0230   -0.0400    0.0080   -0.0764   -0.0378    0.0585    0.1186   -0.0244
          46   -0.0036   -0.0141    0.0193    0.0680   -0.0649   -0.1566    0.1315    0.0907
          47   -0.0058    0.0023   -0.0117   -0.0099    0.0195    0.0304   -0.0411   -0.0251
          48   -0.0066    0.0271    0.0232    0.0520    0.0408   -0.0082   -0.1120   -0.0171
          49   -0.0176   -0.0011   -0.0067    0.1761    0.0959    0.0994    0.0699    0.0066
          50    0.0163    0.0031   -0.0057    0.0188   -0.1011    0.0127   -0.0278    0.0092
          51   -0.0224   -0.0050   -0.0096    0.0614    0.1322    0.0317    0.0564   -0.0070
          52   -0.0229    0.0086    0.0066   -0.0833    0.2393   -0.0484    0.0436    0.0159
          53   -0.0363   -0.0126    0.0099   -0.0689   -0.0863   -0.0273   -0.0378    0.0054
          54   -0.0018   -0.0053    0.0088   -0.0153   -0.1268   -0.0026   -0.0389    0.0009
          55    0.0010   -0.0037   -0.0047   -0.0155   -0.0161   -0.0090   -0.0077   -0.0043
          56    0.0318   -0.0159    0.0079    0.0610    0.1288    0.0286    0.0533    0.0115
          57   -0.0224   -0.0163   -0.0093    0.2101   -0.1212    0.1244    0.0226   -0.0133


   Root No.      33        34        35        36        37        38        39        40

                33 A      34 A      35 A      36 A      37 A      38 A      39 A      40 A   

                1358.4    1386.3    1395.9    1414.3    1535.7    1600.7    1648.5    1669.3
  
           1    0.0093   -0.0007   -0.0057   -0.0026    0.0068    0.0236    0.0006    0.0037
           2   -0.0060    0.0192   -0.0199    0.0043   -0.0434    0.0008   -0.0486    0.0175
           3   -0.0358    0.0120    0.0163    0.0388   -0.0603    0.0077   -0.0605    0.0199
           4   -0.0070   -0.0094   -0.0084   -0.0040    0.0560   -0.2418   -0.0030   -0.2119
           5    0.0256    0.0226   -0.0030    0.0193    0.0558    0.5410    0.0863   -0.1147
           6    0.0089    0.0066   -0.0003    0.0046    0.0111    0.1416    0.0250   -0.0207
           7   -0.0034   -0.0032    0.0007   -0.0066   -0.0144   -0.0054    0.0257    0.0342
           8    0.0014    0.0097   -0.0029    0.0151    0.0275   -0.0231   -0.0336   -0.0297
           9    0.0122    0.0201   -0.0054    0.0295    0.0422   -0.0001   -0.0508   -0.0546
          10   -0.0058   -0.0151    0.0058   -0.0215   -0.0175   -0.0010   -0.0643   -0.1129
          11    0.0067   -0.0033    0.0014   -0.0084   -0.0336   -0.0137    0.0400    0.0410
          12    0.0101   -0.0014    0.0005   -0.0059   -0.0383   -0.0117    0.0765    0.0840
          13    0.0033   -0.0053    0.0015    0.0015   -0.0008    0.0018    0.0034    0.0007
          14   -0.0060    0.0102    0.0030   -0.0056    0.0043   -0.0016    0.0041   -0.0030
          15    0.0197   -0.0306   -0.0006    0.0052    0.0061    0.0041    0.0041    0.0034
          16   -0.0032   -0.0031   -0.0090    0.0014   -0.0016   -0.0053   -0.0007    0.0033
          17   -0.0018   -0.0152   -0.0348    0.0015    0.0060   -0.0013    0.0027    0.0028
          18    0.0071   -0.0005    0.0003   -0.0069    0.0066   -0.0006    0.0029   -0.0003
          19    0.0412   -0.0012   -0.0061   -0.0126   -0.0377    0.0086    0.0205   -0.0394
          20    0.1611   -0.0105   -0.0340   -0.0823   -0.0564    0.0185   -0.0635   -0.0200
          21    0.1278   -0.0223   -0.0216   -0.0744   -0.0213   -0.0053   -0.0264   -0.0453
          22    0.0891    0.0282    0.0130   -0.0081   -0.1613    0.0032    0.0205    0.0445
          23    0.0469    0.0078    0.0076   -0.0163   -0.0759   -0.0002   -0.0132    0.0169
          24    0.0065   -0.0114    0.0042   -0.0186    0.0020   -0.0030   -0.0309   -0.0015
          25    0.0421    0.0435   -0.0113    0.0387   -0.0660   -0.0213    0.0725   -0.0065
          26   -0.0109   -0.0263    0.0084   -0.0284    0.0031   -0.0040   -0.0416   -0.0283
          27   -0.0318   -0.0476    0.0141   -0.0537    0.0183    0.0021   -0.0487    0.0368
          28    0.1254    0.0603   -0.0100    0.0909    0.0198   -0.0809   -0.0394   -0.0180
          29   -0.0406   -0.0240    0.0086   -0.0249   -0.0250   -0.0040   -0.0210   -0.0203
          30   -0.0466   -0.0142    0.0023   -0.0190    0.0075    0.0131   -0.0221   -0.0063
          31   -0.0147   -0.0171    0.0059   -0.0244   -0.0317    0.0212    0.0212    0.0165
          32   -0.0178   -0.0183    0.0079   -0.0226   -0.0229    0.0596   -0.0110    0.0111
          33   -0.1558   -0.0937    0.0226   -0.1191   -0.0422    0.0449   -0.0094   -0.0421
          34   -0.0101    0.0105   -0.0004    0.0178   -0.0325    0.0089    0.0449   -0.0393
          35   -0.0169   -0.0001   -0.0014    0.0149    0.0147   -0.0145    0.1089   -0.0660
          36   -0.0040   -0.0077   -0.0045   -0.0031    0.0454   -0.0167    0.0836   -0.0346
          37   -0.0122    0.0015   -0.0021    0.0099    0.0750    0.0034   -0.0199    0.1289
          38    0.0013   -0.0098    0.0034   -0.0157    0.0336    0.0029   -0.0680    0.0498
          39    0.0073   -0.0078    0.0032   -0.0153   -0.0021    0.0023   -0.0477   -0.0107
          40   -0.0090    0.0542   -0.0210   -0.0496    0.0243   -0.0038    0.0176   -0.0073
          41    0.0009   -0.0963    0.0188    0.0738   -0.0361    0.0086   -0.0281    0.0051
          42   -0.0009    0.0874   -0.0254   -0.0757    0.0372   -0.0089    0.0213   -0.0052
          43    0.0086   -0.0331    0.0085    0.0217   -0.0081    0.0098   -0.0052    0.0060
          44    0.0287   -0.0661    0.0100    0.0532   -0.0171    0.0069   -0.0176    0.0082
          45   -0.0327    0.1243   -0.0304   -0.0896    0.0245   -0.0121    0.0253   -0.0118
          46   -0.0336    0.0450   -0.0162   -0.0352    0.0020    0.0071    0.0001   -0.0033
          47    0.0027    0.0034    0.0022   -0.0001    0.0006   -0.0008    0.0016    0.0009
          48   -0.0447    0.1671   -0.0490   -0.0882   -0.0051    0.0016   -0.0064    0.0020
          49    0.0237    0.0027    0.0884   -0.0182    0.0284   -0.0085    0.0220   -0.0071
          50    0.0501    0.0143    0.1731   -0.0391    0.0503   -0.0036    0.0301   -0.0070
          51   -0.0237   -0.0138   -0.1011    0.0192   -0.0250    0.0001   -0.0220    0.0059
          52    0.0002    0.0147    0.0922    0.0014    0.0015   -0.0032    0.0010   -0.0014
          53   -0.0032    0.0333    0.2076    0.0092    0.0002    0.0046   -0.0004    0.0009
          54    0.0003    0.0155    0.0860    0.0020    0.0007    0.0028   -0.0003    0.0021
          55   -0.0018   -0.0043   -0.0236    0.0016   -0.0044   -0.0007   -0.0052    0.0055
          56    0.0085    0.0316    0.2023   -0.0141    0.0153   -0.0253    0.0117   -0.0011
          57   -0.0057   -0.0073   -0.0174    0.0077   -0.0036    0.0024   -0.0029    0.0017


   Root No.      41        42        43        44        45        46        47        48

                41 A      42 A      43 A      44 A      45 A      46 A      47 A      48 A   

                2665.6    2673.7    2676.7    2679.4    2684.9    2741.1    2746.6    2761.9
  
           1   -0.0018   -0.0019    0.0014    0.0005    0.0004   -0.0019   -0.0005   -0.0003
           2   -0.0010   -0.0005   -0.0014   -0.0012   -0.0003    0.0006    0.0000   -0.0003
           3   -0.0005   -0.0002    0.0004   -0.0025   -0.0006    0.0032    0.0007    0.0003
           4    0.0012    0.0007   -0.0010   -0.0003    0.0021   -0.0006    0.0022   -0.0096
           5   -0.0031   -0.0002    0.0012   -0.0002    0.0146   -0.0036    0.0036   -0.0104
           6    0.0018   -0.0000   -0.0009    0.0001   -0.0051   -0.0011    0.0002    0.0012
           7    0.0019    0.0008   -0.0010    0.0012   -0.0303   -0.0014   -0.0081   -0.0195
           8   -0.0007   -0.0002    0.0003   -0.0006    0.0131    0.0012    0.0010    0.0056
           9    0.0024    0.0008   -0.0010    0.0014   -0.0289    0.0052   -0.0055    0.0173
          10   -0.0000    0.0001    0.0001   -0.0000    0.0033    0.0086   -0.0247   -0.0008
          11   -0.0002   -0.0001    0.0001   -0.0000    0.0034    0.0039   -0.0141    0.0037
          12   -0.0000   -0.0001    0.0001    0.0001    0.0020    0.0056   -0.0209    0.0065
          13   -0.0355   -0.0003    0.0141    0.0069   -0.0032   -0.0003   -0.0004    0.0008
          14   -0.0189   -0.0121   -0.0214   -0.0147   -0.0014    0.0000   -0.0000   -0.0002
          15   -0.0004   -0.0049   -0.0125   -0.0072   -0.0004   -0.0001   -0.0007    0.0016
          16    0.0067   -0.0338    0.0098    0.0026   -0.0011   -0.0006   -0.0003   -0.0000
          17   -0.0015    0.0109   -0.0018   -0.0026    0.0002    0.0011    0.0000   -0.0003
          18    0.0016    0.0027    0.0161   -0.0323   -0.0028    0.0012    0.0001    0.0003
          19   -0.0030   -0.0063   -0.0012    0.0077   -0.0018    0.3571    0.1289   -0.0233
          20   -0.0010   -0.0025   -0.0005    0.0031   -0.0002    0.1286    0.0468   -0.0094
          21    0.0024    0.0050    0.0009   -0.0058    0.0010   -0.3012   -0.1082    0.0209
          22   -0.0001    0.0001    0.0000   -0.0003   -0.0021   -0.0448    0.0289    0.0410
          23    0.0003   -0.0001   -0.0001    0.0004    0.0046    0.0987   -0.0663   -0.0893
          24    0.0001   -0.0003   -0.0003    0.0005    0.0060    0.1224   -0.0815   -0.1106
          25    0.0025    0.0006   -0.0021    0.0009   -0.0670   -0.0953    0.3279   -0.0409
          26    0.0014    0.0002   -0.0011    0.0005   -0.0392   -0.0583    0.1997   -0.0248
          27    0.0018    0.0004   -0.0018    0.0005   -0.0547   -0.0853    0.2893   -0.0376
          28   -0.0079   -0.0031    0.0040   -0.0064    0.1262   -0.0196    0.0105   -0.0870
          29    0.0077    0.0022   -0.0027    0.0045   -0.0856    0.0113   -0.0075    0.0520
          30   -0.0318   -0.0107    0.0137   -0.0202    0.4083   -0.0541    0.0456   -0.2215
          31   -0.0118   -0.0062    0.0086   -0.0082    0.2533    0.0447    0.0796    0.3497
          32    0.0042    0.0021   -0.0028    0.0030   -0.0888   -0.0150   -0.0291   -0.1244
          33    0.0016    0.0008   -0.0010    0.0013   -0.0296   -0.0007   -0.0063   -0.0123
          34    0.0002    0.0004    0.0001   -0.0006    0.0001   -0.0266   -0.0085    0.0016
          35    0.0001    0.0002   -0.0000    0.0003    0.0004   -0.0111   -0.0020    0.0006
          36    0.0000   -0.0002    0.0002    0.0010    0.0003    0.0208    0.0088   -0.0014
          37   -0.0000   -0.0001    0.0001   -0.0000    0.0004    0.0012   -0.0068   -0.0007
          38   -0.0000    0.0000    0.0000   -0.0001   -0.0003   -0.0084    0.0027    0.0073
          39    0.0000    0.0000    0.0000   -0.0000   -0.0004   -0.0076    0.0053    0.0078
          40    0.0294   -0.0478   -0.1315   -0.0777   -0.0013    0.0023   -0.0047    0.0119
          41   -0.0541    0.0376    0.1165    0.0675   -0.0034   -0.0016    0.0038   -0.0096
          42   -0.0730    0.0686    0.2013    0.1185   -0.0021   -0.0034    0.0059   -0.0160
          43    0.3652    0.0214   -0.0948   -0.0436    0.0381    0.0003    0.0108   -0.0244
          44    0.0101   -0.0055   -0.0165   -0.0102    0.0016   -0.0000    0.0006   -0.0017
          45    0.0981    0.0030   -0.0330   -0.0157    0.0099    0.0000    0.0025   -0.0056
          46    0.0487    0.0294    0.0500    0.0345    0.0016    0.0008   -0.0013    0.0046
          47    0.2764    0.1185    0.1698    0.1232    0.0179    0.0021   -0.0042    0.0149
          48   -0.0168   -0.0098   -0.0166   -0.0112   -0.0002   -0.0004   -0.0001   -0.0008
          49   -0.0035    0.0585    0.0350   -0.1003   -0.0060    0.0074    0.0001   -0.0014
          50    0.0113   -0.1189   -0.0491    0.1647    0.0094   -0.0118   -0.0008    0.0021
          51    0.0164   -0.1600   -0.0546    0.1980    0.0107   -0.0153   -0.0006    0.0029
          52   -0.0091    0.0196   -0.0493    0.0822    0.0083    0.0010   -0.0004   -0.0022
          53    0.0189   -0.0527    0.0841   -0.1274   -0.0133   -0.0000    0.0005    0.0031
[...]
     325      19.77952     28.34385         48.12338  -0.26809    28   %  2.5631
     333      19.23482     28.89010         48.12492  -0.26654    29   %  2.6528
     341      18.70870     29.41776         48.12646  -0.26501    30   %  2.7422
     348      18.20133     29.92665         48.12799  -0.26348    31   %  2.8313
     356      17.71253     30.41697         48.12951  -0.26196    32   %  2.9201
     364      17.24241     30.88860         48.13101  -0.26046    33   %  3.0086
     371      16.79095     31.34155         48.13250  -0.25897    34   %  3.0967
     379      16.35787     31.77610         48.13397  -0.25750    35   %  3.1844
     386      15.94317     32.19225         48.13542  -0.25605    36   %  3.2716
     394      15.54652     32.59033         48.13685  -0.25461    37   %  3.3583
     401      15.16776     32.97050         48.13826  -0.25320    38   %  3.4443
     408      14.80656     33.33309         48.13964  -0.25182    39   %  3.5297
     415      14.46257     33.67843         48.14100  -0.25047    40   %  3.6142
     421      14.13544     34.00688         48.14232  -0.24914    41   %  3.6978
     428      13.82461     34.31901         48.14362  -0.24785    42   %  3.7804
     434      13.52965     34.61522         48.14487  -0.24659    43   %  3.8619
     441      13.24991     34.89619         48.14610  -0.24537    44   %  3.9424
     447      12.98480     35.16248         48.14728  -0.24419    45   %  4.0216
     453      12.73365     35.41478         48.14843  -0.24304    46   %  4.0997
     458      12.49578     35.65376         48.14954  -0.24193    47   %  4.1765
     464      12.27044     35.88018         48.15061  -0.24085    48   %  4.2522
     469      12.05698     36.09467         48.15165  -0.23982    49   %  4.3268
     474      11.85472     36.29793         48.15265  -0.23882    50   %  4.4004
     479      11.66301     36.49061         48.15362  -0.23785    51   %  4.4730
     484      11.48122     36.67333         48.15456  -0.23691    52   %  4.5448
     489      11.30879     36.84668         48.15546  -0.23600    53   %  4.6158
     493      11.14520     37.01115         48.15634  -0.23512    54   %  4.6862
     498      10.98989     37.16731         48.15720  -0.23427    55   %  4.7561
     502      10.84247     37.31556         48.15803  -0.23344    56   %  4.8257
     506      10.70248     37.45636         48.15883  -0.23263    57   %  4.8949
     510      10.56953     37.59010         48.15962  -0.23184    58   %  4.9641
     514      10.44325     37.71715         48.16040  -0.23107    59   %  5.0331
     518      10.32330     37.83785         48.16115  -0.23032    60   %  5.1021
     522      10.20937     37.95252         48.16189  -0.22957    61   %  5.1712
     526      10.10117     38.06145         48.16262  -0.22884    62   %  5.2405
     530       9.99842     38.16493         48.16334  -0.22812    63   %  5.3098
     533       9.90324     38.26125         48.16448  -0.22698    64   %  5.3780
     539       9.80869     38.35686         48.16555  -0.22591    65   %  5.4488
     546       9.71997     38.44735         48.16732  -0.22414    66   %  5.5193
     550       9.63669     38.53127         48.16796  -0.22351    67   %  5.5893
     554       9.55784     38.61154         48.16937  -0.22210    68   %  5.6595
     561       9.48193     38.68861         48.17053  -0.22094    69   %  5.7306
     565       9.41126     38.76083         48.17209  -0.21938    70   %  5.8006
     573       9.34207     38.83133         48.17340  -0.21807    71   %  5.8733
     578       9.27723     38.89878         48.17600  -0.21546    72   %  5.9451
     586       9.21523     38.96124         48.17647  -0.21500    73   %  6.0178
     594       9.15617     39.02294         48.17911  -0.21236    74   %  6.0907
     599       9.09999     39.07977         48.17976  -0.21171    75   %  6.1640
     608       9.04584     39.13626         48.18210  -0.20936    76   %  6.2382
     617       8.99378     39.19092         48.18470  -0.20677    77   %  6.3134
     622       8.95099     39.23471         48.18570  -0.20577    78   %  6.3779
     632       8.89687     39.29128         48.18814  -0.20332    79   %  6.4639
     642       8.85083     39.33955         48.19037  -0.20109    80   %  6.5402
     653       8.80607     39.38688         48.19295  -0.19851    81   %  6.6175
     664       8.76286     39.43272         48.19558  -0.19588    82   %  6.6952
     675       8.72134     39.47710         48.19844  -0.19303    83   %  6.7726
     687       8.68109     39.52076         48.20185  -0.18962    84   %  6.8503
     698       8.64195     39.56323         48.20518  -0.18629    85   %  6.9283
     710       8.60423     39.60483         48.20905  -0.18241    86   %  7.0058
     723       8.56757     39.64556         48.21313  -0.17834    87   %  7.0834
     735       8.53212     39.68636         48.21848  -0.17298    88   %  7.1606
     743       8.49991     39.71833         48.21825  -0.17322    89   %  7.2332
     761       8.46481     39.76620         48.23101  -0.16046    90   %  7.3141
     778       8.43278     39.80635         48.23913  -0.15234    91   %  7.3904
     792       8.40180     39.84507         48.24687  -0.14460    92   %  7.4666
     808       8.37208     39.88502         48.25710  -0.13437    93   %  7.5422
     823       8.34297     39.92286         48.26583  -0.12564    94   %  7.6177
     838       8.31647     39.96036         48.27683  -0.11464    95   %  7.6913
     861       8.29159     40.02026         48.31185  -0.07962    96   %  7.7621
     880       8.26485     40.05915         48.32400  -0.06747    97   %  7.8374
     896       8.24768     40.10056         48.34824  -0.04323    98   %  7.8943
     923       8.22102     40.17923         48.40025   0.00879    99   %  7.9795
     941       8.20209     40.22143         48.42352   0.03205   100   %  8.0508
     968       8.18019     40.27390         48.45409   0.06262   101   %  8.1206
     995       8.15796     40.34003         48.49799   0.10652   102   %  8.2031
    1024       8.13986     40.40681         48.54667   0.15520   103   %  8.2751
    1053       8.12203     40.45405         48.57609   0.18462   104   %  8.3498
    1073       8.10761     40.54299         48.65061   0.25914   105   %  8.4145
    1106       8.08891     40.63860         48.72751   0.33604   106   %  8.4983
    1136       8.07768     40.70328         48.78096   0.38949   107   %  8.5584
    1168       8.06350     40.76641         48.82991   0.43844   108   %  8.6339
    1211       8.04944     40.88376         48.93319   0.54173   109   %  8.7136
    1242       8.03874     40.93545         48.97418   0.58272   110   %  8.7801
    1289       8.02369     41.04229         49.06597   0.67451   111   %  8.8641
    1336       8.01598     41.15626         49.17224   0.78078   112   %  8.9331
    1382       8.00678     41.23150         49.23828   0.84682   113   %  9.0040
    1439       7.99786     41.33309         49.33095   0.93949   114   %  9.0761
    1497       7.98985     41.43408         49.42392   1.03246   115   %  9.1470
    1557       7.98193     41.54046         49.52240   1.13093   116   %  9.2182
    1626       7.97582     41.66908         49.64490   1.25343   117   %  9.2868
    1700       7.96970     41.77424         49.74393   1.35247   118   %  9.3557
    1780       7.96413     41.91747         49.88160   1.49014   119   %  9.4238
    1857       7.96840     42.00565         49.97405   1.58258   120   %  9.4873
    1960       7.95480     42.22050         50.17529   1.78383   121   %  9.5531
    2065       7.95068     42.41475         50.36544   1.97397   122   %  9.6176
    2171       7.94743     42.61704         50.56447   2.17300   123   %  9.6778


 IRC CALCULATION COMPLETE 
           INITIAL VELOCITY IN DRC (Angstroms/Femtosecond)
         0.04648        -0.01271        -0.01055
        -0.46530        -0.20798        -0.00138
         0.01940         0.04346         0.01279
         0.01776        -0.01280        -0.01992
        -0.01028         0.00226        -0.00249
        -0.00355        -0.00268         0.00063
        -0.04931         0.03815        -0.03523
         0.00489         0.00237         0.00035
        -0.00018        -0.05195         0.03433
        -0.05507        -0.10725         0.01490
        -0.00340        -0.00658        -0.00371
         0.00064         0.01981         0.01865
        -0.02134        -0.00952         0.00044
        -0.00364         0.00079         0.00074
        -0.00406         0.00393        -0.00637
        -0.00181        -0.00073         0.00057
        -0.00418        -0.00429         0.00042
        -0.00274        -0.00166         0.00041
        -0.00047         0.00351         0.00035

 GEOMETRY PRIORITY, STEP = 0.1000 ANGSTROMS



     POINT   POTENTIAL  +  ENERGY LOST   =   TOTAL      ERROR    REF%   MOVEMENT
       1      49.78946      0.00000         49.78946   0.00000     1   %  0.0000
       1      49.11839      0.00000         49.11839  -3.28811     2   %  0.1025
       8      47.43459      0.57990         48.01449  -0.33210     3   %  0.1984
      31      45.00757      3.00230         48.00987  -0.33672     4   %  0.2971
      42      42.36717      5.64235         48.00951  -0.33708     5   %  0.3928
      61      39.46007      8.55419         48.01426  -0.33233     6   %  0.4992
      84      36.95720     11.06171         48.01891  -0.32768     7   %  0.5984
     108      34.73088     13.29269         48.02357  -0.32302     8   %  0.6969
     130      32.77156     15.25640         48.02796  -0.31863     9   %  0.7945
     150      31.04333     16.98867         48.03200  -0.31459    10   %  0.8912
     169      29.50843     18.52730         48.03572  -0.31086    11   %  0.9868
     187      28.13451     19.90466         48.03917  -0.30742    12   %  1.0819
     203      26.89471     21.14765         48.04236  -0.30422    13   %  1.1767
     218      25.76652     22.27883         48.04535  -0.30124    14   %  1.2714
     232      24.73090     23.31723         48.04813  -0.29846    15   %  1.3662
     246      23.77195     24.27879         48.05074  -0.29585    16   %  1.4610
     258      22.87659     25.17661         48.05320  -0.29339    17   %  1.5560
     270      22.03432     26.02121         48.05552  -0.29107    18   %  1.6510
     281      21.23694     26.82080         48.05774  -0.28885    19   %  1.7460
     292      20.47817     27.58168         48.05986  -0.28673    20   %  1.8409
     302      19.75339     28.30850         48.06189  -0.28470    21   %  1.9356
     312      19.05929     29.00457         48.06386  -0.28273    22   %  2.0301
     322      18.39368     29.67209         48.06578  -0.28081    23   %  2.1242
     332      17.75522     30.31242         48.06764  -0.27895    24   %  2.2180
     341      17.14302     30.92644         48.06946  -0.27713    25   %  2.3112
     350      16.55626     31.51498         48.07124  -0.27535    26   %  2.4039
     359      15.99415     32.07884         48.07298  -0.27361    27   %  2.4960
     367      15.45589     32.61880         48.07469  -0.27190    28   %  2.5875
     376      14.94061     33.13575         48.07636  -0.27023    29   %  2.6785
     384      14.44769     33.63030         48.07799  -0.26860    30   %  2.7687
     392      13.97642     34.10317         48.07959  -0.26700    31   %  2.8583
     400      13.52616     34.55499         48.08115  -0.26544    32   %  2.9472
     408      13.09626     34.98641         48.08266  -0.26393    33   %  3.0352
     415      12.68595     35.39819         48.08413  -0.26246    34   %  3.1224
     423      12.29427     35.79128         48.08555  -0.26103    35   %  3.2085
     430      11.92023     36.16670         48.08693  -0.25966    36   %  3.2936
     436      11.56267     36.52557         48.08824  -0.25835    37   %  3.3777
     443      11.22042     36.86909         48.08951  -0.25708    38   %  3.4607
     449      10.89224     37.19848         48.09072  -0.25587    39   %  3.5426
     455      10.57693     37.51494         48.09187  -0.25472    40   %  3.6236
     461      10.27332     37.81966         48.09298  -0.25361    41   %  3.7037
     466       9.98024     38.11379         48.09403  -0.25256    42   %  3.7830
     471       9.69668     38.39836         48.09504  -0.25155    43   %  3.8619
     476       9.42167     38.67433         48.09600  -0.25058    44   %  3.9403
     481       9.15436     38.94257         48.09693  -0.24966    45   %  4.0186
     486       8.89396     39.20386         48.09782  -0.24877    46   %  4.0968
     490       8.63980     39.45888         48.09868  -0.24791    47   %  4.1751
     494       8.39134     39.70817         48.09951  -0.24708    48   %  4.2535
     498       8.14813     39.95219         48.10032  -0.24627    49   %  4.3321
     502       7.90979     40.19132         48.10111  -0.24548    50   %  4.4109
     506       7.67599     40.42589         48.10188  -0.24471    51   %  4.4900
     510       7.44650     40.65614         48.10264  -0.24395    52   %  4.5694
     514       7.22111     40.88228         48.10338  -0.24321    53   %  4.6491
     518       6.99967     41.10445         48.10412  -0.24247    54   %  4.7291
     521       6.78210     41.32275         48.10485  -0.24174    55   %  4.8094
     525       6.56824     41.53732         48.10557  -0.24102    56   %  4.8901
     529       6.35806     41.74821         48.10628  -0.24031    57   %  4.9712
     532       6.15155     41.95544         48.10699  -0.23960    58   %  5.0527
     536       5.94856     42.15913         48.10769  -0.23890    59   %  5.1345
     539       5.74917     42.35922         48.10839  -0.23820    60   %  5.2168
     543       5.55324     42.55585         48.10909  -0.23750    61   %  5.2994
     546       5.36086     42.74893         48.10978  -0.23681    62   %  5.3825
     550       5.17187     42.93860         48.11047  -0.23612    63   %  5.4660
     553       4.98641     43.12475         48.11116  -0.23543    64   %  5.5498
     557       4.80431     43.30753         48.11185  -0.23474    65   %  5.6341
     560       4.62571     43.48682         48.11253  -0.23406    66   %  5.7187
     564       4.45045     43.66276         48.11321  -0.23338    67   %  5.8037
     567       4.27865     43.83523         48.11389  -0.23270    68   %  5.8891
     571       4.11019     44.00437         48.11456  -0.23203    69   %  5.9749
     574       3.94517     44.17006         48.11523  -0.23136    70   %  6.0610
     577       3.78356     44.33235         48.11590  -0.23069    71   %  6.1474
     581       3.62522     44.49135         48.11657  -0.23002    72   %  6.2342
     584       3.47034     44.64690         48.11724  -0.22935    73   %  6.3213
     588       3.31876     44.79914         48.11790  -0.22869    74   %  6.4087
     591       3.17059     44.94797         48.11856  -0.22803    75   %  6.4964
     594       3.02579     45.09343         48.11922  -0.22737    76   %  6.5844
     598       2.88427     45.23560         48.11987  -0.22672    77   %  6.6727
     601       2.74616     45.37436         48.12052  -0.22606    78   %  6.7612
     604       2.61140     45.50977         48.12117  -0.22542    79   %  6.8499
     608       2.47991     45.64191         48.12182  -0.22477    80   %  6.9390
     611       2.35180     45.77067         48.12246  -0.22412    81   %  7.0282
     614       2.22702     45.89609         48.12311  -0.22348    82   %  7.1177
     617       2.10589     46.01788         48.12377  -0.22282    83   %  7.2071
     622       1.98710     46.13779         48.12489  -0.22170    84   %  7.2974
     626       1.87303     46.25291         48.12594  -0.22065    85   %  7.3870
     631       1.76110     46.36554         48.12665  -0.21994    86   %  7.4773
     636       1.65152     46.47644         48.12796  -0.21863    87   %  7.5687
     640       1.54767     46.58121         48.12888  -0.21771    88   %  7.6583
     646       1.44561     46.68435         48.12995  -0.21664    89   %  7.7491
     649       1.34709     46.78349         48.13058  -0.21601    90   %  7.8398
     655       1.25169     46.88062         48.13231  -0.21428    91   %  7.9307
     658       1.16003     46.97280         48.13283  -0.21376    92   %  8.0210
     665       1.07052     47.06442         48.13495  -0.21164    93   %  8.1126
     668       0.98551     47.15004         48.13555  -0.21104    94   %  8.2032
     676       0.90195     47.23607         48.13801  -0.20858    95   %  8.2947
     679       0.82252     47.31602         48.13855  -0.20804    96   %  8.3857
     687       0.74596     47.39587         48.14183  -0.20476    97   %  8.4766
     691       0.67258     47.46968         48.14226  -0.20433    98   %  8.5675
     695       0.60312     47.54325         48.14637  -0.20022    99   %  8.6586
     703       0.53467     47.61216         48.14682  -0.19977   100   %  8.7492
     711       0.47040     47.68242         48.15282  -0.19377   101   %  8.8393
     716       0.40894     47.74384         48.15278  -0.19381   102   %  8.9293
     726       0.35106     47.80981         48.16087  -0.18572   103   %  9.0182
     730       0.29734     47.86594         48.16329  -0.18330   104   %  9.1061
     741       0.24247     47.92799         48.17046  -0.17613   105   %  9.1964
     752       0.19309     47.98823         48.18132  -0.16527   106   %  9.2836
     764       0.14594     48.04876         48.19471  -0.15188   107   %  9.3709
     774       0.10186     48.10578         48.20764  -0.13895   108   %  9.4569
     781       0.05862     48.14705         48.20567  -0.14092   109   %  9.5428
     795       0.02153     48.20593         48.22746  -0.11913   110   %  9.6257
     809      -0.01524     48.25853         48.24329  -0.10330   111   %  9.7097
     824      -0.04971     48.31564         48.26593  -0.08066   112   %  9.7930
     839      -0.08192     48.36319         48.28127  -0.06532   113   %  9.8756
     856      -0.11171     48.41907         48.30737  -0.03922   114   %  9.9558
     871      -0.13993     48.46214         48.32221  -0.02438   115   % 10.0352
     893      -0.16135     48.52937         48.36802   0.02143   116   % 10.1058
     914      -0.18507     48.56870         48.38362   0.03703   117   % 10.1817
     930      -0.20096     48.60416         48.40321   0.05662   118   % 10.2410
     957      -0.22029     48.68848         48.46819   0.12160   119   % 10.3144
     979      -0.23714     48.72867         48.49153   0.14494   120   % 10.3836
    1012      -0.25163     48.81677         48.56514   0.21855   121   % 10.4480
    1043      -0.26447     48.87428         48.60981   0.26322   122   % 10.5095
    1086      -0.27633     48.94131         48.66498   0.31839   123   % 10.5709
    1129      -0.28655     49.00114         48.71460   0.36801   124   % 10.6272
    1175      -0.29460     49.07268         48.77808   0.43149   125   % 10.6780
    1233      -0.30286     49.15883         48.85597   0.50938   126   % 10.7241
    1293      -0.30157     49.24148         48.93991   0.59332   127   % 10.7657
    1353      -0.31585     49.35289         49.03704   0.69045   128   % 10.8015
    1406      -0.32067     49.47539         49.15472   0.80813   129   % 10.8294
    1479      -0.32627     49.59415         49.26788   0.92129   130   % 10.8589


 IRC CALCULATION COMPLETE 

 **********************
 *                    *
 * JOB ENDED NORMALLY *
 *                    *
 **********************



 TOTAL JOB TIME:            25.46 SECONDS

 == MOPAC DONE ==
