 *******************************************************************************
 ** Site#: 37037        For non-commercial use only           Version 21.158W **
 *******************************************************************************
 ** Cite this program as: MOPAC2016, Version: 21.158W, James J. P. Stewart,   **
 ** Stewart Computational Chemistry, web: HTTP://OpenMOPAC.net. Days left: 361**
 *******************************************************************************
 **                                                                           **
 **                                MOPAC2016                                  **
 **                                                                           **
 *******************************************************************************

                              PM7 CALCULATION RESULTS

 *******************************************************************************
 *  CALCULATION DONE:                                Fri Jun 11 09:39:53 2021  *
 *  1SCF       - DO 1 SCF AND THEN STOP 
 *  T=         - A TIME OF 172800.0 SECONDS REQUESTED
 *  DUMP=N     - RESTART FILE WRITTEN EVERY 7200.0 SECONDS REQUESTED
 *  HTML       - WRITE HTML SCRIPT TO READ PDB FILE USING JSMOL
 *******************************************************************************
 1SCF HTML


  ATOM               CHEMICAL                 BOND LENGTH      BOND ANGLE     TWIST ANGLE 
 NUMBER               SYMBOL                  (ANGSTROMS)      (DEGREES)       (DEGREES) 
   (I)                                           NA:I           NB:NA:I       NC:NB:NA:I       NA    NB    NC 
     1       C(HETATM    1  C1  HET A   1)    0.00000000       0.0000000       0.0000000   
     2       C(HETATM    2  C2  HET A   1)    1.52846800  *    0.0000000       0.0000000        1     0     0
     3       C(HETATM    3  C3  HET A   1)    1.53691400  *  111.0460210  *    0.0000000        2     1     0
     4       C(HETATM    4  C4  HET A   1)    1.46510900  *  112.8052440  * -175.5190420  *     3     2     1
     5       C(HETATM    5  C1  HET B   2)    5.85083000  *   88.9217760  * -104.1913460  *     4     3     2
     6       C(HETATM    6  C2  HET B   2)    1.52870300  *   35.8832630  *  141.9435470  *     5     4     3
     7       C(HETATM    7  C3  HET B   2)    1.53502600  *  111.0427310  *   88.1468950  *     6     5     4
     8       C(HETATM    8  C4  HET B   2)    1.52858700  *  110.8300540  * -179.2002750  *     7     6     5
     9       H(HETATM    9 1H1  HET A   1)    1.09545300  *  111.5737810  *  -57.0955530  *     1     2     3
    10       H(HETATM   10 2H1  HET A   1)    1.09552100  *  111.4743870  *  120.2745660  *     1     2     9
    11       H(HETATM   11 3H1  HET A   1)    1.09596200  *  111.2268140  *  119.7838050  *     1     2    10
    12       H(HETATM   12 1H2  HET A   1)    1.10631100  *  110.1394950  *  121.8737290  *     2     1     3
    13       H(HETATM   13 2H2  HET A   1)    1.10640000  *  109.9259280  *  116.3248080  *     2     1    12
    14       H(HETATM   14 1H3  HET A   1)    1.11428200  *  109.6873090  *  122.8493760  *     3     2     4
    15       H(HETATM   15 2H3  HET A   1)    1.11433000  *  109.6968480  *  114.2230730  *     3     2    14
    16       H(HETATM   16 1H4  HET B   2)    1.09694900  *  111.3107420  *   61.7117370  *     8     7     6
    17       H(HETATM   17 1H4  HET A   1)    1.06405300  *  121.8336370  *  103.5500950  *     4     3     5
    18       H(HETATM   18 2H4  HET A   1)    1.06550300  *  120.5722320  *  179.4532110  *     4     3    17
    19       H(HETATM   19 1H1  HET B   2)    1.09529200  *  138.6816920  *   51.1388670  *     5     4     6
    20       H(HETATM   20 2H1  HET B   2)    1.09559600  *   78.8899780  *  103.9422330  *     5     4    19
    21       H(HETATM   21 3H1  HET B   2)    1.09556900  *  109.1462140  *  104.8726840  *     5     4    20
    22       H(HETATM   22 1H2  HET B   2)    1.10619000  *  110.0004100  *  121.8496080  *     6     5     7
    23       H(HETATM   23 2H2  HET B   2)    1.10645600  *  110.0597400  *  116.2147740  *     6     5    22
    24       H(HETATM   24 1H3  HET B   2)    1.10601400  *  109.9551830  *  121.9103900  *     7     6     8
    25       H(HETATM   25 2H3  HET B   2)    1.10614500  *  109.9306230  *  116.1646780  *     7     6    24
    26       H(HETATM   26 2H4  HET B   2)    1.09550700  *  111.4430350  * -119.9900300  *     8     7    16
    27       H(HETATM   27 3H4  HET B   2)    1.09524300  *  111.2963660  * -120.0215410  *     8     7    26
 

 General Reference for PM7:
 "Optimization of Parameters for Semiempirical Methods VI: More Modifications to the 
 NDDO Approximations and Re-optimization of Parameters", J. J. P. Stewart, J. Mol. Mod., 1:32, 19 (2013)
 https://link.springer.com/article/10.1007/s00894-012-1667-x

           Empirical Formula: C8 H19  =    27 atoms



      MOLECULAR POINT GROUP   :   C1  


          UHF CALCULATION, NO. OF ALPHA ELECTRONS =   26
                           NO. OF BETA  ELECTRONS =   25

 -------------------------------------------------------------------------------
 1SCF HTML




     1SCF WAS SPECIFIED, SO BFGS WAS NOT USED                 
     SCF FIELD WAS ACHIEVED                                   


                              PM7 CALCULATION
                                                       MOPAC2016 (Version: 21.158W)
                                                       Fri Jun 11 09:39:53 2021
                                                       No. of days remaining = 361




          FINAL HEAT OF FORMATION =        -23.61333 KCAL/MOL =     -98.79816 KJ/MOL


          TOTAL ENERGY            =      -1238.99775 EV
          ELECTRONIC ENERGY       =      -6400.29501 EV  POINT GROUP:     C1  
          CORE-CORE REPULSION     =       5161.29726 EV
          COSMO AREA              =        216.32 SQUARE ANGSTROMS
          COSMO VOLUME            =        210.38 CUBIC ANGSTROMS

          IONIZATION POTENTIAL    =          9.053840 EV
          ALPHA SOMO LUMO (EV)    =         -9.054  4.094
          BETA  SOMO LUMO (EV)    =        -11.121  0.861
          NO. OF ALPHA ELECTRONS  =         26
          NO. OF BETA  ELECTRONS  =         25
          MOLECULAR WEIGHT        =        115.2381

          MOLECULAR DIMENSIONS (Angstroms)

            Atom       Atom       Distance
            H    19    H    10     9.15446
            H    27    H    21     5.52424
            H    26    H    20     2.98333


          SCF CALCULATIONS        =          1
 
          WALL-CLOCK TIME         =          0.047 SECONDS
          COMPUTATION TIME        =          0.062 SECONDS




  ATOM               CHEMICAL                 BOND LENGTH      BOND ANGLE     TWIST ANGLE 
 NUMBER               SYMBOL                  (ANGSTROMS)      (DEGREES)       (DEGREES) 
   (I)                                           NA:I           NB:NA:I       NC:NB:NA:I       NA    NB    NC 
     1       C(HETATM    1  C1  HET A   1)    0.00000000       0.0000000       0.0000000   
     2       C(HETATM    2  C2  HET A   1)    1.52846800  *    0.0000000       0.0000000        1     0     0
     3       C(HETATM    3  C3  HET A   1)    1.53691400  *  111.0460210  *    0.0000000        2     1     0
     4       C(HETATM    4  C4  HET A   1)    1.46510900  *  112.8052440  * -175.5190420  *     3     2     1
     5       C(HETATM    5  C1  HET B   2)    5.85083000  *   88.9217760  * -104.1913460  *     4     3     2
     6       C(HETATM    6  C2  HET B   2)    1.52870300  *   35.8832630  *  141.9435470  *     5     4     3
     7       C(HETATM    7  C3  HET B   2)    1.53502600  *  111.0427310  *   88.1468950  *     6     5     4
     8       C(HETATM    8  C4  HET B   2)    1.52858700  *  110.8300540  * -179.2002750  *     7     6     5
     9       H(HETATM    9 1H1  HET A   1)    1.09545300  *  111.5737810  *  -57.0955530  *     1     2     3
    10       H(HETATM   10 2H1  HET A   1)    1.09552100  *  111.4743870  *  120.2745660  *     1     2     9
    11       H(HETATM   11 3H1  HET A   1)    1.09596200  *  111.2268140  *  119.7838050  *     1     2    10
    12       H(HETATM   12 1H2  HET A   1)    1.10631100  *  110.1394950  *  121.8737290  *     2     1     3
    13       H(HETATM   13 2H2  HET A   1)    1.10640000  *  109.9259280  *  116.3248080  *     2     1    12
    14       H(HETATM   14 1H3  HET A   1)    1.11428200  *  109.6873090  *  122.8493760  *     3     2     4
    15       H(HETATM   15 2H3  HET A   1)    1.11433000  *  109.6968480  *  114.2230730  *     3     2    14
    16       H(HETATM   16 1H4  HET B   2)    1.09694900  *  111.3107420  *   61.7117370  *     8     7     6
    17       H(HETATM   17 1H4  HET A   1)    1.06405300  *  121.8336370  *  103.5500950  *     4     3     5
    18       H(HETATM   18 2H4  HET A   1)    1.06550300  *  120.5722320  *  179.4532110  *     4     3    17
    19       H(HETATM   19 1H1  HET B   2)    1.09529200  *  138.6816920  *   51.1388670  *     5     4     6
    20       H(HETATM   20 2H1  HET B   2)    1.09559600  *   78.8899780  *  103.9422330  *     5     4    19
    21       H(HETATM   21 3H1  HET B   2)    1.09556900  *  109.1462140  *  104.8726840  *     5     4    20
    22       H(HETATM   22 1H2  HET B   2)    1.10619000  *  110.0004100  *  121.8496080  *     6     5     7
    23       H(HETATM   23 2H2  HET B   2)    1.10645600  *  110.0597400  *  116.2147740  *     6     5    22
    24       H(HETATM   24 1H3  HET B   2)    1.10601400  *  109.9551830  *  121.9103900  *     7     6     8
    25       H(HETATM   25 2H3  HET B   2)    1.10614500  *  109.9306230  *  116.1646780  *     7     6    24
    26       H(HETATM   26 2H4  HET B   2)    1.09550700  *  111.4430350  * -119.9900300  *     8     7    16
    27       H(HETATM   27 3H4  HET B   2)    1.09524300  *  111.2963660  * -120.0215410  *     8     7    26

                             CARTESIAN COORDINATES

   1    C        0.000000000     0.000000000     0.000000000
   2    C        1.528468000     0.000000000     0.000000000
   3    C        2.080401025     1.434389968     0.000000000
   4    C        3.540966610     1.480850472    -0.105517650
   5    C        3.802295564     2.751094834     5.599777971
   6    C        4.476760265     1.968646523     4.472921783
   7    C        5.516493899     2.833614171     3.746912307
   8    C        6.173671972     2.053003324     2.608781426
   9    H       -0.402797018     0.553404101     0.855286933
  10    H       -0.401054095     0.459990027    -0.909797257
  11    H       -0.396804934    -1.020240275     0.052804648
  12    H        1.909378563    -0.548467601     0.882051281
  13    H        1.905534677    -0.548143156    -0.884014005
  14    H        1.621436783     2.013210771    -0.834231789
  15    H        1.748872521     1.964379780     0.922459213
  16    H        5.436795513     1.753130984     1.853541879
  17    H        4.127954650     0.595229993    -0.163225480
  18    H        4.052696706     2.414936001    -0.135736482
  19    H        4.534336169     3.114586126     6.328924869
  20    H        3.260807491     3.621978946     5.214184758
  21    H        3.081764547     2.127314575     6.140152542
  22    H        4.960690616     1.060871089     4.879629900
  23    H        3.717214873     1.608860800     3.753276098
  24    H        5.036801369     3.748572217     3.351926462
  25    H        6.284931626     3.180211887     4.463103792
  26    H        6.658493585     1.141763957     2.975832383
  27    H        6.938464308     2.653249095     2.104445303


           Empirical Formula: C8 H19  =    27 atoms



      MOLECULAR POINT GROUP   :   C1  


          ALPHA EIGENVALUES  
 -28.69952 -28.61147 -25.54653 -25.23487 -21.48074 -21.14535 -19.98127 -19.84610
 -16.18307 -16.02823 -15.19410 -14.83606 -14.72680 -14.41816 -14.06848 -13.53353
 -13.16169 -12.84350 -12.33962 -12.10676 -11.95454 -11.67474 -11.57908 -11.45182
 -11.12186  -9.05384   4.09403   4.16773   4.43222   4.60322   4.88073   4.97615
   5.36258   5.50825   5.74577   5.82352   5.83247   5.91355   6.02273   6.13317
   6.13911   6.30056   6.34223   6.47653   6.60496   6.66569   6.77366   6.80565
   7.01422   7.09627   7.17253


           BETA EIGENVALUES 
 -28.67131 -28.57084 -25.53903 -25.09476 -21.47090 -21.00630 -19.90031 -19.76903
 -16.17660 -15.91544 -15.06156 -14.76877 -14.69411 -14.41780 -14.06354 -13.28727
 -13.04686 -12.84231 -12.25078 -12.09877 -11.95357 -11.63296 -11.47342 -11.45004
 -11.12080   0.86117   4.12345   4.16786   4.46668   4.60335   4.88094   5.22528
   5.41856   5.50954   5.79835   5.82563   5.83637   5.91414   6.02358   6.13491
   6.15323   6.34366   6.44571   6.62709   6.67488   6.76763   6.80586   6.82594
   7.01602   7.09759   7.17517


              NET ATOMIC CHARGES AND DIPOLE CONTRIBUTIONS

  ATOM NO.                 TYPE                        CHARGE      No. of ELECS.   s-Pop       p-Pop       
    1          C(HETATM    1  C1  HET A   1)          -0.443306        4.4433     1.05233     3.39098
    2          C(HETATM    2  C2  HET A   1)          -0.244279        4.2443     1.05557     3.18871
    3          C(HETATM    3  C3  HET A   1)          -0.270275        4.2703     1.04905     3.22122
    4          C(HETATM    4  C4  HET A   1)          -0.315619        4.3156     1.12063     3.19499
    5          C(HETATM    5  C1  HET B   2)          -0.441508        4.4415     1.05214     3.38937
    6          C(HETATM    6  C2  HET B   2)          -0.249760        4.2498     1.05558     3.19418
    7          C(HETATM    7  C3  HET B   2)          -0.250042        4.2500     1.05547     3.19458
    8          C(HETATM    8  C4  HET B   2)          -0.443174        4.4432     1.05256     3.39061
    9          H(HETATM    9 1H1  HET A   1)           0.143044        0.8570     0.85696
   10          H(HETATM   10 2H1  HET A   1)           0.141660        0.8583     0.85834
   11          H(HETATM   11 3H1  HET A   1)           0.141260        0.8587     0.85874
   12          H(HETATM   12 1H2  HET A   1)           0.136393        0.8636     0.86361
   13          H(HETATM   13 2H2  HET A   1)           0.135368        0.8646     0.86463
   14          H(HETATM   14 1H3  HET A   1)           0.153073        0.8469     0.84693
   15          H(HETATM   15 2H3  HET A   1)           0.153527        0.8465     0.84647
   16          H(HETATM   16 1H4  HET B   2)           0.146432        0.8536     0.85357
   17          H(HETATM   17 1H4  HET A   1)           0.136415        0.8636     0.86359
   18          H(HETATM   18 2H4  HET A   1)           0.133214        0.8668     0.86679
   19          H(HETATM   19 1H1  HET B   2)           0.141123        0.8589     0.85888
   20          H(HETATM   20 2H1  HET B   2)           0.141731        0.8583     0.85827
   21          H(HETATM   21 3H1  HET B   2)           0.139864        0.8601     0.86014
   22          H(HETATM   22 1H2  HET B   2)           0.132957        0.8670     0.86704
   23          H(HETATM   23 2H2  HET B   2)           0.135590        0.8644     0.86441
   24          H(HETATM   24 1H3  HET B   2)           0.133144        0.8669     0.86686
   25          H(HETATM   25 2H3  HET B   2)           0.132132        0.8679     0.86787
   26          H(HETATM   26 2H4  HET B   2)           0.141731        0.8583     0.85827
   27          H(HETATM   27 3H4  HET B   2)           0.139306        0.8607     0.86069

          NET CHARGE ON RESIDUES

      Residue         Charge  Anion or
                              Cation?
      HET A   1       +0.000
      HET B   2       +0.000
 


 DIPOLE           X         Y         Z       TOTAL
 POINT-CHG.    -0.450     0.006    -0.015     0.451
 HYBRID        -0.070     0.035     0.007     0.078
 SUM           -0.520     0.041    -0.008     0.522


          ATOMIC ORBITAL ELECTRON POPULATIONS

                   Atom                  s        px        py        pz   
   C(HETATM    1  C1  HET A   1)   1.05233   1.04522   1.17205   1.17371
   C(HETATM    2  C2  HET A   1)   1.05557   0.99543   1.03145   1.16182
   C(HETATM    3  C3  HET A   1)   1.04905   1.02105   1.04713   1.15304
   C(HETATM    4  C4  HET A   1)   1.12063   1.02263   1.12895   1.04341
   C(HETATM    5  C1  HET B   2)   1.05214   1.14603   1.14021   1.10313
   C(HETATM    6  C2  HET B   2)   1.05558   1.07453   1.06638   1.05327
   C(HETATM    7  C3  HET B   2)   1.05547   1.07469   1.06759   1.05230
   C(HETATM    8  C4  HET B   2)   1.05256   1.14812   1.13991   1.10258
   H(HETATM    9 1H1  HET A   1)   0.85696
   H(HETATM   10 2H1  HET A   1)   0.85834
   H(HETATM   11 3H1  HET A   1)   0.85874
   H(HETATM   12 1H2  HET A   1)   0.86361
   H(HETATM   13 2H2  HET A   1)   0.86463
   H(HETATM   14 1H3  HET A   1)   0.84693
   H(HETATM   15 2H3  HET A   1)   0.84647
   H(HETATM   16 1H4  HET B   2)   0.85357
   H(HETATM   17 1H4  HET A   1)   0.86359
   H(HETATM   18 2H4  HET A   1)   0.86679
   H(HETATM   19 1H1  HET B   2)   0.85888
   H(HETATM   20 2H1  HET B   2)   0.85827
   H(HETATM   21 3H1  HET B   2)   0.86014
   H(HETATM   22 1H2  HET B   2)   0.86704
   H(HETATM   23 2H2  HET B   2)   0.86441
   H(HETATM   24 1H3  HET B   2)   0.86686
   H(HETATM   25 2H3  HET B   2)   0.86787
   H(HETATM   26 2H4  HET B   2)   0.85827
   H(HETATM   27 3H4  HET B   2)   0.86069


                    (SZ)    =    0.500000
                    (S**2)  =    0.753353


          ATOMIC ORBITAL SPIN POPULATIONS

    Atom   Total    s     px     py     pz   
         Atomic
    1  C -0.0008 -0.000 -0.001 -0.000  0.000
    2  C  0.0025  0.000  0.001  0.001  0.000
    3  C -0.0448 -0.007 -0.030 -0.005 -0.003
    4  C  1.0361  0.026  0.037  0.032  0.941
    5  C -0.0000 -0.000  0.000  0.000 -0.000
    6  C  0.0000 -0.000  0.000  0.000  0.000
    7  C -0.0000 -0.000 -0.000 -0.000 -0.000
    8  C  0.0010  0.000  0.000  0.000  0.000
    9  H  0.0000  0.000
   10  H  0.0000  0.000
   11  H  0.0000  0.000
   12  H -0.0002 -0.000
   13  H -0.0002 -0.000
   14  H  0.0323  0.032
   15  H  0.0331  0.033
   16  H -0.0004 -0.000
   17  H -0.0292 -0.029
   18  H -0.0295 -0.029
   19  H  0.0000  0.000
   20  H  0.0000  0.000
   21  H -0.0000 -0.000
   22  H -0.0000 -0.000
   23  H -0.0000 -0.000
   24  H  0.0000  0.000
   25  H  0.0000  0.000
   26  H -0.0000 -0.000
   27  H -0.0000 -0.000

 **********************
 *                    *
 * JOB ENDED NORMALLY *
 *                    *
 **********************



 TOTAL JOB TIME:             0.11 SECONDS

 == MOPAC DONE ==
