 *******************************************************************************
 ** Site#: 37037        For non-commercial use only           Version 21.158W **
 *******************************************************************************
 ** Cite this program as: MOPAC2016, Version: 21.158W, James J. P. Stewart,   **
 ** Stewart Computational Chemistry, web: HTTP://OpenMOPAC.net. Days left: 361**
 *******************************************************************************
 **                                                                           **
 **                                MOPAC2016                                  **
 **                                                                           **
 *******************************************************************************

                              PM7 CALCULATION RESULTS

 *******************************************************************************
 *  CALCULATION DONE:                                Fri Jun 11 09:52:57 2021  *
 *  GEO_DAT    - DATA SET GEOMETRY IS IN FILE "SADDLE for C4H10 plus C4H9 - C4H9 plus C4H10.arc"
 *  XYZ        - CARTESIAN COORDINATE SYSTEM TO BE USED
 *  TS         - USE EF ROUTINE FOR TS SEARCH
 *  T=         - A TIME OF 172800.0 SECONDS REQUESTED
 *  DUMP=N     - RESTART FILE WRITTEN EVERY 7200.0 SECONDS REQUESTED
 *******************************************************************************
TS xyz geo_dat="SADDLE for C4H10 plus C4H9 - C4H9 plus C4H10.arc"
 Narcissistic reaction: Butane + butyl radical <=> butyl radical + butane
 Refine transition state from a SADDLE calculation
   ATOM                 CHEMICAL                   X               Y               Z
  NUMBER                 SYMBOL               (ANGSTROMS)     (ANGSTROMS)     (ANGSTROMS)
 
     1       C(HETATM    1  C1  HET A   1)    0.06793115  *   0.11504079  *  -0.28272089  *
     2       C(HETATM    2  C2  HET A   1)    1.56798554  *  -0.08825207  *  -0.06718495  *
     3       C(HETATM    3  C3  HET A   1)    2.31666895  *   1.24347028  *   0.15503784  *
     4       C(HETATM    4  C4  HET A   1)    3.79265106  *   0.98674010  *   0.34716698  *
     5       C(HETATM    5  C1  HET B   2)    3.65605349  *   2.53017795  *   5.36017111  *
     6       C(HETATM    6  C2  HET B   2)    4.23354707  *   1.78987903  *   4.15490432  *
     7       C(HETATM    7  C3  HET B   2)    5.12686447  *   2.70739170  *   3.30314021  *
     8       C(HETATM    8  C4  HET B   2)    5.52582552  *   2.06203820  *   2.02068744  *
     9       H(HETATM    9 1H1  HET A   1)   -0.38847198  *   0.66803342  *   0.54417810  *
    10       H(HETATM   10 2H1  HET A   1)   -0.13854608  *   0.66455350  *  -1.20613446  *
    11       H(HETATM   11 3H1  HET A   1)   -0.45069695  *  -0.84959382  *  -0.35617174  *
    12       H(HETATM   12 1H2  HET A   1)    1.73059366  *  -0.75327130  *   0.80299484  *
    13       H(HETATM   13 2H2  HET A   1)    1.99963922  *  -0.61794946  *  -0.93754749  *
    14       H(HETATM   14 1H3  HET A   1)    2.14084602  *   1.91115460  *  -0.71660694  *
    15       H(HETATM   15 2H3  HET A   1)    1.89145515  *   1.77306454  *   1.02489210  *
    16       H(HETATM   16 1H4  HET A   1)    4.40325443  *   1.18790128  *  -0.52783658  *
    17       H(HETATM   17 2H4  HET A   1)    4.02249004  *   0.02212235  *   0.78488869  *
    18       H(HETATM   18 3H4  HET B   2)    5.93749905  *   1.06828148  *   2.09795033  *
    19       H(HETATM   19 1H1  HET B   2)    4.44246700  *   2.87145637  *   6.04194415  *
    20       H(HETATM   20 2H1  HET B   2)    3.08261561  *   3.41014461  *   5.04891048  *
    21       H(HETATM   21 3H1  HET B   2)    2.98124914  *   1.88540307  *   5.92937056  *
    22       H(HETATM   22 1H2  HET B   2)    4.81113742  *   0.90801704  *   4.48970696  *
    23       H(HETATM   23 2H2  HET B   2)    3.41310553  *   1.39306220  *   3.52863135  *
    24       H(HETATM   24 1H3  HET B   2)    4.62081807  *   3.67669916  *   3.12648289  *
    25       H(HETATM   25 2H3  HET B   2)    6.04414233  *   2.96560223  *   3.88390529  *
    26       H(HETATM   26 1H4  HET B   2)    4.34019975  *   1.78459577  *   1.25194982  *
    27       H(HETATM   27 2H4  HET B   2)    6.05746488  *   2.68697894  *   1.32280444  *
 

 General Reference for PM7:
 "Optimization of Parameters for Semiempirical Methods VI: More Modifications to the 
 NDDO Approximations and Re-optimization of Parameters", J. J. P. Stewart, J. Mol. Mod., 1:32, 19 (2013)
 https://link.springer.com/article/10.1007/s00894-012-1667-x

           Empirical Formula: C8 H19  =    27 atoms



      MOLECULAR POINT GROUP   :   C1  


          UHF CALCULATION, NO. OF ALPHA ELECTRONS =   26
                           NO. OF BETA  ELECTRONS =   25

          Transition state refinement using EF

          HESSIAN CALCULATED NUMERICALLY

 CYCLE:     1 TIME:   0.734 TIME LEFT:  2.00D  GRAD.:    44.472 HEAT:  1.600997
 CYCLE:     2 TIME:   0.016 TIME LEFT:  2.00D  GRAD.:     6.935 HEAT:  2.380495
 CYCLE:     3 TIME:   0.016 TIME LEFT:  2.00D  GRAD.:     7.063 HEAT:  2.030390
 CYCLE:     4 TIME:   0.016 TIME LEFT:  2.00D  GRAD.:     5.258 HEAT:  1.651224
 CYCLE:     5 TIME:   0.016 TIME LEFT:  2.00D  GRAD.:     4.136 HEAT:  1.184329
 CYCLE:     6 TIME:   0.016 TIME LEFT:  2.00D  GRAD.:     5.424 HEAT: 0.8143931
 CYCLE:     7 TIME:   0.016 TIME LEFT:  2.00D  GRAD.:     7.925 HEAT: 0.5621853
 CYCLE:     8 TIME:   0.016 TIME LEFT:  2.00D  GRAD.:    17.716 HEAT: 0.5291188
 CYCLE:     9 TIME:   0.016 TIME LEFT:  2.00D  GRAD.:    10.427 HEAT: 0.2893244
 CYCLE:    10 TIME:   0.031 TIME LEFT:  2.00D  GRAD.:    10.775 HEAT: 0.1651783
 CYCLE:    11 TIME:   0.016 TIME LEFT:  2.00D  GRAD.:    13.592 HEAT: 0.1184961
 CYCLE:    12 TIME:   0.016 TIME LEFT:  2.00D  GRAD.:    17.157 HEAT: 0.1046379
 CYCLE:    13 TIME:   0.016 TIME LEFT:  2.00D  GRAD.:     7.816 HEAT:-0.5334904E-01
 CYCLE:    14 TIME:   0.016 TIME LEFT:  2.00D  GRAD.:     4.891 HEAT:-0.1156130
 CYCLE:    15 TIME:   0.016 TIME LEFT:  2.00D  GRAD.:     5.201 HEAT:-0.1415620
 CYCLE:    16 TIME:   0.000 TIME LEFT:  2.00D  GRAD.:     6.998 HEAT:-0.1605508
 CYCLE:    17 TIME:   0.031 TIME LEFT:  2.00D  GRAD.:     5.552 HEAT:-0.2020800
 CYCLE:    18 TIME:   0.016 TIME LEFT:  2.00D  GRAD.:     4.725 HEAT:-0.2418706
 CYCLE:    19 TIME:   0.016 TIME LEFT:  2.00D  GRAD.:     5.779 HEAT:-0.2700391
 CYCLE:    20 TIME:   0.016 TIME LEFT:  2.00D  GRAD.:     6.396 HEAT:-0.2867787
 CYCLE:    21 TIME:   0.016 TIME LEFT:  2.00D  GRAD.:     6.467 HEAT:-0.3247192
 CYCLE:    22 TIME:   0.016 TIME LEFT:  2.00D  GRAD.:     5.942 HEAT:-0.3389644
 CYCLE:    23 TIME:   0.016 TIME LEFT:  2.00D  GRAD.:     7.550 HEAT:-0.3575594
 CYCLE:    24 TIME:   0.016 TIME LEFT:  2.00D  GRAD.:     8.589 HEAT:-0.3812601
 CYCLE:    25 TIME:   0.016 TIME LEFT:  2.00D  GRAD.:     5.769 HEAT:-0.3945173
 CYCLE:    26 TIME:   0.016 TIME LEFT:  2.00D  GRAD.:     8.269 HEAT:-0.4225261
 CYCLE:    27 TIME:   0.031 TIME LEFT:  2.00D  GRAD.:     5.097 HEAT:-0.4401773
 CYCLE:    28 TIME:   0.016 TIME LEFT:  2.00D  GRAD.:     3.504 HEAT:-0.4528852
 CYCLE:    29 TIME:   0.016 TIME LEFT:  2.00D  GRAD.:     4.201 HEAT:-0.4639650
 CYCLE:    30 TIME:   0.016 TIME LEFT:  2.00D  GRAD.:     3.289 HEAT:-0.4691321
 CYCLE:    31 TIME:   0.016 TIME LEFT:  2.00D  GRAD.:     3.343 HEAT:-0.4805747
 CYCLE:    32 TIME:   0.016 TIME LEFT:  2.00D  GRAD.:     3.057 HEAT:-0.4885996
 CYCLE:    33 TIME:   0.016 TIME LEFT:  2.00D  GRAD.:     3.746 HEAT:-0.4946251
 CYCLE:    34 TIME:   0.016 TIME LEFT:  2.00D  GRAD.:     4.561 HEAT:-0.5008236
 CYCLE:    35 TIME:   0.000 TIME LEFT:  2.00D  GRAD.:     4.845 HEAT:-0.5074004
 CYCLE:    36 TIME:   0.016 TIME LEFT:  2.00D  GRAD.:     5.200 HEAT:-0.5132748
 CYCLE:    37 TIME:   0.016 TIME LEFT:  2.00D  GRAD.:     4.662 HEAT:-0.5225502
 CYCLE:    38 TIME:   0.016 TIME LEFT:  2.00D  GRAD.:     3.409 HEAT:-0.5349888
 CYCLE:    39 TIME:   0.016 TIME LEFT:  2.00D  GRAD.:     2.700 HEAT:-0.5434024
 CYCLE:    40 TIME:   0.016 TIME LEFT:  2.00D  GRAD.:     2.736 HEAT:-0.5496884
 CYCLE:    41 TIME:   0.016 TIME LEFT:  2.00D  GRAD.:     3.504 HEAT:-0.5534713
 CYCLE:    42 TIME:   0.000 TIME LEFT:  2.00D  GRAD.:     3.927 HEAT:-0.5579636
 CYCLE:    43 TIME:   0.016 TIME LEFT:  2.00D  GRAD.:     3.670 HEAT:-0.5640654
 CYCLE:    44 TIME:   0.016 TIME LEFT:  2.00D  GRAD.:     3.171 HEAT:-0.5706647
 CYCLE:    45 TIME:   0.016 TIME LEFT:  2.00D  GRAD.:     3.092 HEAT:-0.5755058
 CYCLE:    46 TIME:   0.016 TIME LEFT:  2.00D  GRAD.:     3.512 HEAT:-0.5788710
 CYCLE:    47 TIME:   0.016 TIME LEFT:  2.00D  GRAD.:     3.794 HEAT:-0.5825262
 CYCLE:    48 TIME:   0.016 TIME LEFT:  2.00D  GRAD.:     4.237 HEAT:-0.5847675
 CYCLE:    49 TIME:   0.000 TIME LEFT:  2.00D  GRAD.:     2.615 HEAT:-0.5922839
 CYCLE:    50 TIME:   0.016 TIME LEFT:  2.00D  GRAD.:     2.005 HEAT:-0.5953541
 CYCLE:    51 TIME:   0.016 TIME LEFT:  2.00D  GRAD.:     1.906 HEAT:-0.5970861
 CYCLE:    52 TIME:   0.016 TIME LEFT:  2.00D  GRAD.:     0.749 HEAT:-0.6002803

     GRADIENT =  0.74917 IS LESS THAN CUTOFF =  1.00000



 -------------------------------------------------------------------------------
 TS xyz
 Narcissistic reaction: Butane + butyl radical <=> butyl radical + butane
 Refine transition state from a SADDLE calculation


     GEOMETRY OPTIMISED USING EIGENVECTOR FOLLOWING (TS).     
     SCF FIELD WAS ACHIEVED                                   


                              PM7 CALCULATION
                                                       MOPAC2016 (Version: 21.158W)
                                                       Fri Jun 11 09:52:58 2021
                                                       No. of days remaining = 361




          FINAL HEAT OF FORMATION =         -0.60028 KCAL/MOL =      -2.51157 KJ/MOL


          TOTAL ENERGY            =      -1237.98863 EV
          ELECTRONIC ENERGY       =      -6777.04068 EV  POINT GROUP:     C1  
          CORE-CORE REPULSION     =       5539.05205 EV
          COSMO AREA              =        203.33 SQUARE ANGSTROMS
          COSMO VOLUME            =        201.45 CUBIC ANGSTROMS

          GRADIENT NORM           =          0.74917 = 0.14418 PER ATOM
          IONIZATION POTENTIAL    =          8.303110 EV
          ALPHA SOMO LUMO (EV)    =         -8.303  4.148
          BETA  SOMO LUMO (EV)    =        -10.781  0.044
          NO. OF ALPHA ELECTRONS  =         26
          NO. OF BETA  ELECTRONS  =         25
          MOLECULAR WEIGHT        =        115.2381

          MOLECULAR DIMENSIONS (Angstroms)

            Atom       Atom       Distance
            H    19    H    11     8.17124
            H    27    H    21     5.43063
            H    17    H    10     3.84876


          SCF CALCULATIONS        =        135
 
          WALL-CLOCK TIME         =          1.547 SECONDS
          COMPUTATION TIME        =          6.125 SECONDS




   ATOM                 CHEMICAL                   X               Y               Z
  NUMBER                 SYMBOL               (ANGSTROMS)     (ANGSTROMS)     (ANGSTROMS)
 
     1       C(HETATM    1  C1  HET A   1)    0.17781986  *   0.62531151  *  -0.00969930  *
     2       C(HETATM    2  C2  HET A   1)    1.59341355  *   0.04961267  *  -0.01293288  *
     3       C(HETATM    3  C3  HET A   1)    2.59897460  *   1.06456950  *   0.55727700  *
     4       C(HETATM    4  C4  HET A   1)    3.98590006  *   0.49072778  *   0.54369405  *
     5       C(HETATM    5  C1  HET B   2)    3.40795559  *   2.28972956  *   5.07867531  *
     6       C(HETATM    6  C2  HET B   2)    4.28426384  *   1.71170030  *   3.96774496  *
     7       C(HETATM    7  C3  HET B   2)    4.70494356  *   2.80440602  *   2.97292240  *
     8       C(HETATM    8  C4  HET B   2)    5.54760669  *   2.24531432  *   1.86475686  *
     9       H(HETATM    9 1H1  HET A   1)   -0.14496773  *   0.89103578  *   1.00280243  *
    10       H(HETATM   10 2H1  HET A   1)    0.11159351  *   1.52954288  *  -0.62492777  *
    11       H(HETATM   11 3H1  HET A   1)   -0.54494261  *  -0.09588541  *  -0.40693219  *
    12       H(HETATM   12 1H2  HET A   1)    1.62548079  *  -0.88397814  *   0.57915256  *
    13       H(HETATM   13 2H2  HET A   1)    1.88752974  *  -0.23281138  *  -1.04088828  *
    14       H(HETATM   14 1H3  HET A   1)    2.55732748  *   2.00377387  *  -0.02804518  *
    15       H(HETATM   15 2H3  HET A   1)    2.30233115  *   1.34441520  *   1.58818585  *
    16       H(HETATM   16 1H4  HET A   1)    4.46163557  *   0.42722656  *  -0.42480361  *
    17       H(HETATM   17 2H4  HET A   1)    4.13289975  *  -0.39962500  *   1.13888116  *
    18       H(HETATM   18 3H4  HET B   2)    6.37263207  *   1.61619561  *   2.16813236  *
    19       H(HETATM   19 1H1  HET B   2)    3.94131427  *   3.05645306  *   5.65156759  *
    20       H(HETATM   20 2H1  HET B   2)    2.50049662  *   2.75159311  *   4.67491203  *
    21       H(HETATM   21 3H1  HET B   2)    3.09574175  *   1.51043096  *   5.78294031  *
    22       H(HETATM   22 1H2  HET B   2)    5.18112712  *   1.23101296  *   4.40163712  *
    23       H(HETATM   23 2H2  HET B   2)    3.73976799  *   0.90822038  *   3.43469084  *
    24       H(HETATM   24 1H3  HET B   2)    3.80440790  *   3.30373035  *   2.56208278  *
    25       H(HETATM   25 2H3  HET B   2)    5.26497126  *   3.60078694  *   3.50679465  *
    26       H(HETATM   26 1H4  HET B   2)    4.78410544  *   1.37400117  *   1.18056186  *
    27       H(HETATM   27 2H4  HET B   2)    5.82172319  *   2.94491685  *   1.08686248  *

                             CARTESIAN COORDINATES

   1    C        0.177819860     0.625311511    -0.009699295
   2    C        1.593413550     0.049612665    -0.012932877
   3    C        2.598974597     1.064569499     0.557276995
   4    C        3.985900055     0.490727783     0.543694052
   5    C        3.407955591     2.289729564     5.078675313
   6    C        4.284263839     1.711700303     3.967744957
   7    C        4.704943563     2.804406021     2.972922398
   8    C        5.547606689     2.245314321     1.864756865
   9    H       -0.144967727     0.891035777     1.002802426
  10    H        0.111593507     1.529542878    -0.624927767
  11    H       -0.544942614    -0.095885409    -0.406932187
  12    H        1.625480794    -0.883978143     0.579152558
  13    H        1.887529743    -0.232811383    -1.040888280
  14    H        2.557327482     2.003773870    -0.028045183
  15    H        2.302331154     1.344415202     1.588185847
  16    H        4.461635570     0.427226565    -0.424803609
  17    H        4.132899745    -0.399624998     1.138881159
  18    H        6.372632067     1.616195613     2.168132358
  19    H        3.941314270     3.056453062     5.651567593
  20    H        2.500496616     2.751593112     4.674912026
  21    H        3.095741752     1.510430959     5.782940311
  22    H        5.181127124     1.231012956     4.401637116
  23    H        3.739767992     0.908220383     3.434690838
  24    H        3.804407900     3.303730350     2.562082780
  25    H        5.264971262     3.600786942     3.506794651
  26    H        4.784105439     1.374001170     1.180561865
  27    H        5.821723186     2.944916848     1.086862485


           Empirical Formula: C8 H19  =    27 atoms



      MOLECULAR POINT GROUP   :   C1  


          ALPHA EIGENVALUES  
 -29.12120 -28.30986 -25.93163 -24.81424 -21.76337 -20.86463 -19.96108 -19.63913
 -16.43215 -16.08362 -14.91602 -14.72476 -14.65335 -14.41351 -14.23302 -13.64149
 -12.94372 -12.53276 -12.23532 -12.17123 -12.06629 -11.78720 -11.49832 -11.22231
 -11.14620  -8.30311   4.14811   4.16092   4.53333   4.59175   4.90124   4.95776
   5.36510   5.47701   5.57074   5.81171   5.86716   5.90904   5.91976   6.14025
   6.15533   6.24657   6.37332   6.62739   6.69112   6.71918   6.73592   6.85074
   6.91012   7.07731   7.08369


           BETA EIGENVALUES 
 -29.07356 -28.28702 -25.85480 -24.74673 -21.66494 -20.78338 -19.93597 -19.54617
 -16.37109 -16.00284 -14.81831 -14.66369 -14.57871 -14.22883 -14.10565 -13.52415
 -12.80387 -12.32134 -12.17780 -12.11408 -11.99229 -11.65385 -11.40091 -11.16019
 -10.78075   0.04426   4.19391   4.21366   4.55226   4.63319   5.00940   5.07436
   5.43615   5.50877   5.76197   5.83025   5.89733   5.91920   6.00552   6.17797
   6.20942   6.30499   6.44481   6.64962   6.72648   6.74835   6.77762   6.88721
   7.04893   7.08102   7.11739


              NET ATOMIC CHARGES AND DIPOLE CONTRIBUTIONS

  ATOM NO.                 TYPE                        CHARGE      No. of ELECS.   s-Pop       p-Pop       
    1          C(HETATM    1  C1  HET A   1)          -0.440997        4.4410     1.05214     3.38886
    2          C(HETATM    2  C2  HET A   1)          -0.244090        4.2441     1.05557     3.18852
    3          C(HETATM    3  C3  HET A   1)          -0.265282        4.2653     1.05347     3.21182
    4          C(HETATM    4  C4  HET A   1)          -0.393365        4.3934     1.09901     3.29436
    5          C(HETATM    5  C1  HET B   2)          -0.440832        4.4408     1.05215     3.38869
    6          C(HETATM    6  C2  HET B   2)          -0.249964        4.2500     1.05603     3.19394
    7          C(HETATM    7  C3  HET B   2)          -0.261844        4.2618     1.05267     3.20918
    8          C(HETATM    8  C4  HET B   2)          -0.395141        4.3951     1.09780     3.29735
    9          H(HETATM    9 1H1  HET A   1)           0.142775        0.8572     0.85722
   10          H(HETATM   10 2H1  HET A   1)           0.142050        0.8580     0.85795
   11          H(HETATM   11 3H1  HET A   1)           0.139525        0.8605     0.86048
   12          H(HETATM   12 1H2  HET A   1)           0.133761        0.8662     0.86624
   13          H(HETATM   13 2H2  HET A   1)           0.133914        0.8661     0.86609
   14          H(HETATM   14 1H3  HET A   1)           0.137456        0.8625     0.86254
   15          H(HETATM   15 2H3  HET A   1)           0.140294        0.8597     0.85971
   16          H(HETATM   16 1H4  HET A   1)           0.135470        0.8645     0.86453
   17          H(HETATM   17 2H4  HET A   1)           0.135250        0.8647     0.86475
   18          H(HETATM   18 3H4  HET B   2)           0.136842        0.8632     0.86316
   19          H(HETATM   19 1H1  HET B   2)           0.141366        0.8586     0.85863
   20          H(HETATM   20 2H1  HET B   2)           0.142003        0.8580     0.85800
   21          H(HETATM   21 3H1  HET B   2)           0.140616        0.8594     0.85938
   22          H(HETATM   22 1H2  HET B   2)           0.133953        0.8660     0.86605
   23          H(HETATM   23 2H2  HET B   2)           0.137763        0.8622     0.86224
   24          H(HETATM   24 1H3  HET B   2)           0.138337        0.8617     0.86166
   25          H(HETATM   25 2H3  HET B   2)           0.141130        0.8589     0.85887
   26          H(HETATM   26 1H4  HET B   2)           0.203608        0.7964     0.79639
   27          H(HETATM   27 2H4  HET B   2)           0.135403        0.8646     0.86460

          NET CHARGE ON RESIDUES

      Residue         Charge  Anion or
                              Cation?
      HET A   1       -0.103
      HET B   2       +0.103
 


 DIPOLE           X         Y         Z       TOTAL
 POINT-CHG.    -0.165     0.084     0.112     0.216
 HYBRID        -0.042     0.040     0.023     0.063
 SUM           -0.206     0.125     0.135     0.276


          ATOMIC ORBITAL ELECTRON POPULATIONS

                   Atom                  s        px        py        pz   
   C(HETATM    1  C1  HET A   1)   1.05214   1.06067   1.15489   1.17330
   C(HETATM    2  C2  HET A   1)   1.05557   0.97987   1.06844   1.14022
   C(HETATM    3  C3  HET A   1)   1.05347   0.99235   1.07358   1.14589
   C(HETATM    4  C4  HET A   1)   1.09901   1.03714   1.11908   1.13814
   C(HETATM    5  C1  HET B   2)   1.05215   1.13065   1.15447   1.10356
   C(HETATM    6  C2  HET B   2)   1.05603   1.10350   1.05952   1.03092
   C(HETATM    7  C3  HET B   2)   1.05267   1.10906   1.06313   1.03699
   C(HETATM    8  C4  HET B   2)   1.09780   1.10176   1.12053   1.07505
   H(HETATM    9 1H1  HET A   1)   0.85722
   H(HETATM   10 2H1  HET A   1)   0.85795
   H(HETATM   11 3H1  HET A   1)   0.86048
   H(HETATM   12 1H2  HET A   1)   0.86624
   H(HETATM   13 2H2  HET A   1)   0.86609
   H(HETATM   14 1H3  HET A   1)   0.86254
   H(HETATM   15 2H3  HET A   1)   0.85971
   H(HETATM   16 1H4  HET A   1)   0.86453
   H(HETATM   17 2H4  HET A   1)   0.86475
   H(HETATM   18 3H4  HET B   2)   0.86316
   H(HETATM   19 1H1  HET B   2)   0.85863
   H(HETATM   20 2H1  HET B   2)   0.85800
   H(HETATM   21 3H1  HET B   2)   0.85938
   H(HETATM   22 1H2  HET B   2)   0.86605
   H(HETATM   23 2H2  HET B   2)   0.86224
   H(HETATM   24 1H3  HET B   2)   0.86166
   H(HETATM   25 2H3  HET B   2)   0.85887
   H(HETATM   26 1H4  HET B   2)   0.79639
   H(HETATM   27 2H4  HET B   2)   0.86460


                    (SZ)    =    0.500000
                    (S**2)  =    0.772308


          ATOMIC ORBITAL SPIN POPULATIONS

    Atom   Total    s     px     py     pz   
         Atomic
    1  C  0.0001 -0.000  0.000 -0.000 -0.000
    2  C  0.0220  0.004  0.008  0.007  0.003
    3  C -0.0275 -0.003 -0.016 -0.006 -0.003
    4  C  0.5982  0.048  0.160  0.256  0.134
    5  C -0.0005 -0.000 -0.000 -0.000 -0.000
    6  C  0.0038  0.001  0.000  0.002  0.001
    7  C -0.0241 -0.003 -0.007 -0.006 -0.008
    8  C  0.5925  0.047  0.208  0.214  0.124
    9  H  0.0000  0.000
   10  H  0.0000  0.000
   11  H  0.0004  0.000
   12  H -0.0006 -0.001
   13  H -0.0007 -0.001
   14  H  0.0023  0.002
   15  H  0.0044  0.004
   16  H -0.0159 -0.016
   17  H -0.0164 -0.016
   18  H -0.0159 -0.016
   19  H  0.0000  0.000
   20  H  0.0000  0.000
   21  H  0.0000  0.000
   22  H -0.0001 -0.000
   23  H -0.0002 -0.000
   24  H  0.0046  0.005
   25  H  0.0181  0.018
   26  H -0.1285 -0.129
   27  H -0.0161 -0.016
 *******************************************************************************
 ** Site#: 37037        For non-commercial use only           Version 21.158W **
 *******************************************************************************
 ** Cite this program as: MOPAC2016, Version: 21.158W, James J. P. Stewart,   **
 ** Stewart Computational Chemistry, web: HTTP://OpenMOPAC.net. Days left: 361**
 *******************************************************************************
 **                                                                           **
 **                                MOPAC2016                                  **
 **                                                                           **
 *******************************************************************************

                              PM7 CALCULATION RESULTS

 *******************************************************************************
 *  CALCULATION DONE:                                Fri Jun 11 09:52:58 2021  *
 *  OLDGEO     - PREVIOUS GEOMETRY TO BE USED
 *  FORCE      - FORCE CALCULATION SPECIFIED
 *  T=         - A TIME OF 172800.0 SECONDS REQUESTED
 *  DUMP=N     - RESTART FILE WRITTEN EVERY 7200.0 SECONDS REQUESTED
 *  ISOTOPE    - SAVE THE FORCE MATRIX FOR USE LATER
 *******************************************************************************
oldgeo FORCE isotope
 Calculate force constants and normal modes for the refined transition state
 Refine transition state from a SADDLE calculation
   ATOM                 CHEMICAL                   X               Y               Z
  NUMBER                 SYMBOL               (ANGSTROMS)     (ANGSTROMS)     (ANGSTROMS)
 
     1       C(HETATM    1  C1  HET A   1)    0.17781986  *   0.62531151  *  -0.00969930  *
     2       C(HETATM    2  C2  HET A   1)    1.59341355  *   0.04961267  *  -0.01293288  *
     3       C(HETATM    3  C3  HET A   1)    2.59897460  *   1.06456950  *   0.55727700  *
     4       C(HETATM    4  C4  HET A   1)    3.98590006  *   0.49072778  *   0.54369405  *
     5       C(HETATM    5  C1  HET B   2)    3.40795559  *   2.28972956  *   5.07867531  *
     6       C(HETATM    6  C2  HET B   2)    4.28426384  *   1.71170030  *   3.96774496  *
     7       C(HETATM    7  C3  HET B   2)    4.70494356  *   2.80440602  *   2.97292240  *
     8       C(HETATM    8  C4  HET B   2)    5.54760669  *   2.24531432  *   1.86475686  *
     9       H(HETATM    9 1H1  HET A   1)   -0.14496773  *   0.89103578  *   1.00280243  *
    10       H(HETATM   10 2H1  HET A   1)    0.11159351  *   1.52954288  *  -0.62492777  *
    11       H(HETATM   11 3H1  HET A   1)   -0.54494261  *  -0.09588541  *  -0.40693219  *
    12       H(HETATM   12 1H2  HET A   1)    1.62548079  *  -0.88397814  *   0.57915256  *
    13       H(HETATM   13 2H2  HET A   1)    1.88752974  *  -0.23281138  *  -1.04088828  *
    14       H(HETATM   14 1H3  HET A   1)    2.55732748  *   2.00377387  *  -0.02804518  *
    15       H(HETATM   15 2H3  HET A   1)    2.30233115  *   1.34441520  *   1.58818585  *
    16       H(HETATM   16 1H4  HET A   1)    4.46163557  *   0.42722656  *  -0.42480361  *
    17       H(HETATM   17 2H4  HET A   1)    4.13289975  *  -0.39962500  *   1.13888116  *
    18       H(HETATM   18 3H4  HET B   2)    6.37263207  *   1.61619561  *   2.16813236  *
    19       H(HETATM   19 1H1  HET B   2)    3.94131427  *   3.05645306  *   5.65156759  *
    20       H(HETATM   20 2H1  HET B   2)    2.50049662  *   2.75159311  *   4.67491203  *
    21       H(HETATM   21 3H1  HET B   2)    3.09574175  *   1.51043096  *   5.78294031  *
    22       H(HETATM   22 1H2  HET B   2)    5.18112712  *   1.23101296  *   4.40163712  *
    23       H(HETATM   23 2H2  HET B   2)    3.73976799  *   0.90822038  *   3.43469084  *
    24       H(HETATM   24 1H3  HET B   2)    3.80440790  *   3.30373035  *   2.56208278  *
    25       H(HETATM   25 2H3  HET B   2)    5.26497126  *   3.60078694  *   3.50679465  *
    26       H(HETATM   26 1H4  HET B   2)    4.78410544  *   1.37400117  *   1.18056186  *
    27       H(HETATM   27 2H4  HET B   2)    5.82172319  *   2.94491685  *   1.08686248  *
 

 General Reference for PM7:
 "Optimization of Parameters for Semiempirical Methods VI: More Modifications to the 
 NDDO Approximations and Re-optimization of Parameters", J. J. P. Stewart, J. Mol. Mod., 1:32, 19 (2013)
 https://link.springer.com/article/10.1007/s00894-012-1667-x

           Empirical Formula: C8 H19  =    27 atoms



      MOLECULAR POINT GROUP   :   C1  


          UHF CALCULATION, NO. OF ALPHA ELECTRONS =   26
                           NO. OF BETA  ELECTRONS =   25


          HEAT OF FORMATION =      -0.600280 KCALS/MOLE


          CARTESIAN COORDINATE DERIVATIVES

   NUMBER  ATOM         X            Y            Z

     1       C      0.046621     0.066157     0.174102
     2       C      0.040245     0.010713    -0.001989
     3       C      0.030144    -0.047891     0.028189
     4       C     -0.099992     0.122505     0.151634
     5       C     -0.299346     0.036304    -0.037775
     6       C     -0.013144     0.008712    -0.193408
     7       C      0.205703    -0.160024    -0.021356
     8       C     -0.071164     0.020138     0.219628
     9       H      0.010668    -0.066515    -0.167691
    10       H     -0.005711    -0.017033    -0.005559
    11       H     -0.034678    -0.033950    -0.005953
    12       H     -0.015508     0.020912    -0.048728
    13       H     -0.005772     0.032796     0.057197
    14       H     -0.000453    -0.018127     0.002818
    15       H     -0.006547    -0.042421    -0.083354
    16       H      0.054890    -0.072929    -0.107347
    17       H     -0.015802    -0.000766    -0.053118
    18       H     -0.050526    -0.017689     0.020774
    19       H      0.033301     0.089716     0.035246
    20       H      0.089521     0.092294     0.067871
    21       H      0.022956    -0.057992     0.100750
    22       H      0.178264    -0.030703     0.019010
    23       H     -0.037053    -0.091024    -0.035063
    24       H     -0.032079    -0.039579     0.001238
    25       H      0.014688     0.180951     0.021981
    26       H      0.002352    -0.004899    -0.003464
    27       H     -0.041579     0.020337    -0.135634
 


          GRADIENT NORM =   0.75302


          TIME FOR SCF CALCULATION =    0.02

          TIME FOR DERIVATIVES     =    0.00

          MOLECULAR WEIGHT =  115.24



          ROTATIONAL CONSTANTS IN CM(-1)

          A =    0.07855145   B =    0.02510105   C =    0.02082887



           PRINCIPAL MOMENTS OF INERTIA IN UNITS OF 10**(-40)*GRAM-CM**2

          A =      356.3623   B =     1115.2033   C =     1343.9410


          ORIENTATION OF MOLECULE IN FORCE CALCULATION

    NO.       ATOM         X         Y         Z

     1          C      -2.5680   -2.4899   -0.9828
     2          C      -1.0398   -2.4899   -0.9828
     3          C      -0.4919   -1.0525   -0.9828
     4          C       1.0090   -1.0649   -0.9887
     5          C      -0.2136    2.0660    2.5944
     6          C       0.8182    1.4369    1.6586
     7          C       0.7984    2.1157    0.2803
     8          C       1.7919    1.4921   -0.6549
     9          H      -2.9693   -1.9735   -0.1040
    10          H      -2.9687   -1.9891   -1.8711
    11          H      -2.9650   -3.5110   -0.9743
    12          H      -0.6597   -3.0367   -0.0998
    13          H      -0.6588   -3.0366   -1.8654
    14          H      -0.8831   -0.5015   -1.8602
    15          H      -0.8743   -0.5077   -0.0962
    16          H       1.4757   -1.3390   -1.9244
    17          H       1.4794   -1.5340   -0.1359
    18          H       2.7925    1.3640   -0.2665
    19          H      -0.0096    3.1300    2.7583
    20          H      -1.2274    1.9836    2.1877
    21          H      -0.2108    1.5756    3.5743
    22          H       1.8292    1.5117    2.1014
    23          H       0.6176    0.3537    1.5464
    24          H      -0.2231    2.0646   -0.1476
    25          H       1.0160    3.1986    0.3936
    26          H       1.4143    0.2153   -0.8483
    27          H       1.7839    1.8723   -1.6674


    FIRST DERIVATIVES WILL BE USED IN THE CALCULATION OF SECOND DERIVATIVES

          ESTIMATED TIME TO COMPLETE CALCULATION =        2.53 SECONDS

    FOR POINT-GROUP C1   THERE ARE   1 UNIQUE SYMMETRY FUNCTIONS.

 STEP:   1 TIME =     0.02 SECS, INTEGRAL =      0.02 TIME LEFT: 172799.97
 STEP:   2 TIME =     0.03 SECS, INTEGRAL =      0.05 TIME LEFT: 172799.94
 STEP:   3 TIME =     0.02 SECS, INTEGRAL =      0.06 TIME LEFT: 172799.92
 STEP:   4 TIME =     0.03 SECS, INTEGRAL =      0.09 TIME LEFT: 172799.89
 STEP:   5 TIME =     0.02 SECS, INTEGRAL =      0.11 TIME LEFT: 172799.88
 STEP:   6 TIME =     0.03 SECS, INTEGRAL =      0.14 TIME LEFT: 172799.84
 STEP:   7 TIME =     0.03 SECS, INTEGRAL =      0.17 TIME LEFT: 172799.81
 STEP:   8 TIME =     0.02 SECS, INTEGRAL =      0.19 TIME LEFT: 172799.80
 STEP:   9 TIME =     0.02 SECS, INTEGRAL =      0.20 TIME LEFT: 172799.78
 STEP:  10 TIME =     0.03 SECS, INTEGRAL =      0.23 TIME LEFT: 172799.75
 STEP:  11 TIME =     0.03 SECS, INTEGRAL =      0.27 TIME LEFT: 172799.72
 STEP:  12 TIME =     0.03 SECS, INTEGRAL =      0.30 TIME LEFT: 172799.69
 STEP:  13 TIME =     0.03 SECS, INTEGRAL =      0.33 TIME LEFT: 172799.66
 STEP:  14 TIME =     0.02 SECS, INTEGRAL =      0.34 TIME LEFT: 172799.64
 STEP:  15 TIME =     0.03 SECS, INTEGRAL =      0.38 TIME LEFT: 172799.61
 STEP:  16 TIME =     0.02 SECS, INTEGRAL =      0.39 TIME LEFT: 172799.59
 STEP:  17 TIME =     0.03 SECS, INTEGRAL =      0.42 TIME LEFT: 172799.56
 STEP:  18 TIME =     0.03 SECS, INTEGRAL =      0.45 TIME LEFT: 172799.53
 STEP:  19 TIME =     0.03 SECS, INTEGRAL =      0.48 TIME LEFT: 172799.50
 STEP:  20 TIME =     0.03 SECS, INTEGRAL =      0.52 TIME LEFT: 172799.47
 STEP:  21 TIME =     0.03 SECS, INTEGRAL =      0.55 TIME LEFT: 172799.44
 STEP:  22 TIME =     0.03 SECS, INTEGRAL =      0.58 TIME LEFT: 172799.41
 STEP:  23 TIME =     0.03 SECS, INTEGRAL =      0.61 TIME LEFT: 172799.38
 STEP:  24 TIME =     0.03 SECS, INTEGRAL =      0.64 TIME LEFT: 172799.34
 STEP:  25 TIME =     0.02 SECS, INTEGRAL =      0.66 TIME LEFT: 172799.33
 STEP:  26 TIME =     0.02 SECS, INTEGRAL =      0.67 TIME LEFT: 172799.31
 STEP:  27 TIME =     0.03 SECS, INTEGRAL =      0.70 TIME LEFT: 172799.28
 STEP:  28 TIME =     0.02 SECS, INTEGRAL =      0.72 TIME LEFT: 172799.27
 STEP:  29 TIME =     0.03 SECS, INTEGRAL =      0.75 TIME LEFT: 172799.23
 STEP:  30 TIME =     0.02 SECS, INTEGRAL =      0.77 TIME LEFT: 172799.22
 STEP:  31 TIME =     0.02 SECS, INTEGRAL =      0.78 TIME LEFT: 172799.20
 STEP:  32 TIME =     0.03 SECS, INTEGRAL =      0.81 TIME LEFT: 172799.17
 STEP:  33 TIME =     0.02 SECS, INTEGRAL =      0.83 TIME LEFT: 172799.16
 STEP:  34 TIME =     0.02 SECS, INTEGRAL =      0.84 TIME LEFT: 172799.14
 STEP:  35 TIME =     0.03 SECS, INTEGRAL =      0.88 TIME LEFT: 172799.11
 STEP:  36 TIME =     0.03 SECS, INTEGRAL =      0.91 TIME LEFT: 172799.08
 STEP:  37 TIME =     0.02 SECS, INTEGRAL =      0.92 TIME LEFT: 172799.06
 STEP:  38 TIME =     0.03 SECS, INTEGRAL =      0.95 TIME LEFT: 172799.03
 STEP:  39 TIME =     0.02 SECS, INTEGRAL =      0.97 TIME LEFT: 172799.02
 STEP:  40 TIME =     0.03 SECS, INTEGRAL =      1.00 TIME LEFT: 172798.98
 STEP:  41 TIME =     0.02 SECS, INTEGRAL =      1.02 TIME LEFT: 172798.97
 STEP:  42 TIME =     0.02 SECS, INTEGRAL =      1.03 TIME LEFT: 172798.95
 STEP:  43 TIME =     0.03 SECS, INTEGRAL =      1.06 TIME LEFT: 172798.92
 STEP:  44 TIME =     0.03 SECS, INTEGRAL =      1.09 TIME LEFT: 172798.89
 STEP:  45 TIME =     0.03 SECS, INTEGRAL =      1.12 TIME LEFT: 172798.86
 STEP:  46 TIME =     0.05 SECS, INTEGRAL =      1.17 TIME LEFT: 172798.81
 STEP:  47 TIME =     0.03 SECS, INTEGRAL =      1.20 TIME LEFT: 172798.78
 STEP:  48 TIME =     0.03 SECS, INTEGRAL =      1.23 TIME LEFT: 172798.75
 STEP:  49 TIME =     0.03 SECS, INTEGRAL =      1.27 TIME LEFT: 172798.72
 STEP:  50 TIME =     0.03 SECS, INTEGRAL =      1.30 TIME LEFT: 172798.69
 STEP:  51 TIME =     0.03 SECS, INTEGRAL =      1.33 TIME LEFT: 172798.66
 STEP:  52 TIME =     0.02 SECS, INTEGRAL =      1.34 TIME LEFT: 172798.64
 STEP:  53 TIME =     0.03 SECS, INTEGRAL =      1.38 TIME LEFT: 172798.61
 STEP:  54 TIME =     0.03 SECS, INTEGRAL =      1.41 TIME LEFT: 172798.58
 STEP:  55 TIME =     0.03 SECS, INTEGRAL =      1.44 TIME LEFT: 172798.55
 STEP:  56 TIME =     0.02 SECS, INTEGRAL =      1.45 TIME LEFT: 172798.53
 STEP:  57 TIME =     0.02 SECS, INTEGRAL =      1.47 TIME LEFT: 172798.52
 STEP:  58 TIME =     0.03 SECS, INTEGRAL =      1.50 TIME LEFT: 172798.48
 STEP:  59 TIME =     0.02 SECS, INTEGRAL =      1.52 TIME LEFT: 172798.47
 STEP:  60 TIME =     0.02 SECS, INTEGRAL =      1.53 TIME LEFT: 172798.45
 STEP:  61 TIME =     0.03 SECS, INTEGRAL =      1.56 TIME LEFT: 172798.42
 STEP:  62 TIME =     0.02 SECS, INTEGRAL =      1.58 TIME LEFT: 172798.41
 STEP:  63 TIME =     0.03 SECS, INTEGRAL =      1.61 TIME LEFT: 172798.38
 STEP:  64 TIME =     0.02 SECS, INTEGRAL =      1.62 TIME LEFT: 172798.36
 STEP:  65 TIME =     0.02 SECS, INTEGRAL =      1.64 TIME LEFT: 172798.34
 STEP:  66 TIME =     0.02 SECS, INTEGRAL =      1.66 TIME LEFT: 172798.33
 STEP:  67 TIME =     0.02 SECS, INTEGRAL =      1.67 TIME LEFT: 172798.31
 STEP:  68 TIME =     0.03 SECS, INTEGRAL =      1.70 TIME LEFT: 172798.28
 STEP:  69 TIME =     0.03 SECS, INTEGRAL =      1.73 TIME LEFT: 172798.25
 STEP:  70 TIME =     0.03 SECS, INTEGRAL =      1.77 TIME LEFT: 172798.22
 STEP:  71 TIME =     0.02 SECS, INTEGRAL =      1.78 TIME LEFT: 172798.20
 STEP:  72 TIME =     0.02 SECS, INTEGRAL =      1.80 TIME LEFT: 172798.19
 STEP:  73 TIME =     0.03 SECS, INTEGRAL =      1.83 TIME LEFT: 172798.16
 STEP:  74 TIME =     0.02 SECS, INTEGRAL =      1.84 TIME LEFT: 172798.14
 STEP:  75 TIME =     0.03 SECS, INTEGRAL =      1.88 TIME LEFT: 172798.11
 STEP:  76 TIME =     0.03 SECS, INTEGRAL =      1.91 TIME LEFT: 172798.08
 STEP:  77 TIME =     0.03 SECS, INTEGRAL =      1.94 TIME LEFT: 172798.05
 STEP:  78 TIME =     0.02 SECS, INTEGRAL =      1.95 TIME LEFT: 172798.03
 STEP:  79 TIME =     0.02 SECS, INTEGRAL =      1.97 TIME LEFT: 172798.02
 STEP:  80 TIME =     0.03 SECS, INTEGRAL =      2.00 TIME LEFT: 172797.98
 STEP:  81 TIME =     0.03 SECS, INTEGRAL =      2.03 TIME LEFT: 172797.95

(To convert to Hartree/Bohr^2, multiply by (10^(-21) x N x a0^2)/(4.184 x 627.51) =  0.0642)


           FORCE MATRIX IN MILLIDYNES/ANGSTROM


                  C  1       C  2       C  3       C  4       C  5       C  6
 ------------------------------------------------------------------------------
     C    1  11.398671
     C    2   3.110519  11.875228
     C    3   0.655234   2.811394  12.072203
     C    4   0.034707   0.652767   3.612806   9.930854
     C    5   0.005063   0.002538   0.007953   0.013610  11.395915
     C    6   0.002741   0.002649   0.010373   0.027359   3.104717  11.932945
     C    7   0.007189   0.005531   0.019493   0.192801   0.646686   2.889258
     C    8   0.019656   0.039028   0.154045   2.854313   0.063734   0.661750
     H    9   3.438312   0.682081   0.012885   0.003884   0.002734   0.001369
     H   10   3.436763   0.682263   0.012416   0.004482   0.001449   0.001073
     H   11   3.434413   0.672769   0.046401   0.005904   0.001027   0.000712
     H   12   0.687237   3.330458   0.682582   0.027453   0.002245   0.001999
     H   13   0.686777   3.331618   0.682347   0.027306   0.000716   0.000541
     H   14   0.013140   0.684273   3.317111   0.710010   0.002925   0.001790
     H   15   0.012813   0.687437   3.296352   0.707198   0.006482   0.004328
     H   16   0.004677   0.008399   0.669923   3.521349   0.002787   0.002445
     H   17   0.005478   0.012600   0.669707   3.519381   0.004721   0.005927
     H   18   0.003630   0.005620   0.018939   0.184772   0.006741   0.016256
     H   19   0.001060   0.000528   0.001419   0.003691   3.435933   0.682565
     H   20   0.002514   0.001139   0.003426   0.004605   3.438155   0.681817
     H   21   0.001698   0.001103   0.002425   0.002942   3.434057   0.672954
     H   22   0.000987   0.000958   0.002168   0.006238   0.685891   3.327716
     H   23   0.003027   0.002054   0.004900   0.013422   0.685943   3.310296
     H   24   0.003304   0.002535   0.005344   0.013187   0.014333   0.683598
     H   25   0.001315   0.001234   0.002707   0.029196   0.012639   0.685951
     H   26   0.027904   0.071564   0.637837   2.824805   0.015661   0.023579
     H   27   0.003323   0.005301   0.013250   0.178952   0.008484   0.043979


                  C  7       C  8       H  9       H 10       H 11       H 12
 ------------------------------------------------------------------------------
     C    7  12.087958
     C    8   3.589245   9.952111
     H    9   0.002092   0.003223   4.227239
     H   10   0.002223   0.004548   0.468956   4.225695
     H   11   0.000797   0.001741   0.469326   0.469268   4.223985
     H   12   0.002753   0.009361   0.016504   0.048461   0.018929   4.260838
     H   13   0.002413   0.008790   0.048645   0.016889   0.018384   0.460748
     H   14   0.004837   0.012858   0.005615   0.015360   0.001959   0.047567
     H   15   0.004735   0.015466   0.015643   0.005451   0.001964   0.016816
     H   16   0.022730   0.183622   0.000747   0.001287   0.000802   0.002663
     H   17   0.017638   0.175173   0.001193   0.000817   0.000927   0.012304
     H   18   0.669899   3.519964   0.000774   0.000854   0.000442   0.001677
     H   19   0.012029   0.006832   0.000306   0.000311   0.000361   0.000348
     H   20   0.014215   0.007298   0.001292   0.000760   0.000317   0.000757
     H   21   0.045705   0.007195   0.000902   0.000490   0.000338   0.000735
     H   22   0.686763   0.017995   0.000293   0.000365   0.000320   0.000661
     H   23   0.686313   0.020583   0.001256   0.000830   0.000660   0.002141
     H   24   3.298479   0.711042   0.001236   0.001215   0.000244   0.000878
     H   25   3.262964   0.696844   0.000323   0.000397   0.000323   0.000515
     H   26   0.702990   2.819847   0.003849   0.005983   0.003382   0.013054
     H   27   0.661133   3.514241   0.000701   0.000999   0.000312   0.001368


                  H 13       H 14       H 15       H 16       H 17       H 18
 ------------------------------------------------------------------------------
     H   13   4.262013
     H   14   0.016399   4.260699
     H   15   0.047448   0.456657   4.241629
     H   16   0.009014   0.017846   0.046598   4.249688
     H   17   0.003834   0.047474   0.014717   0.462082   4.251641
     H   18   0.001508   0.002244   0.002886   0.020860   0.019089   4.253174
     H   19   0.000360   0.000647   0.000758   0.000858   0.000984   0.001330
     H   20   0.000281   0.001195   0.003116   0.000834   0.001099   0.001107
     H   21   0.000346   0.000604   0.002067   0.000461   0.001208   0.001202
     H   22   0.000383   0.000490   0.001651   0.001302   0.002922   0.014824
     H   23   0.000468   0.001981   0.011934   0.002092   0.009579   0.006682
     H   24   0.000773   0.003942   0.007505   0.002663   0.002656   0.047238
     H   25   0.000494   0.001221   0.001210   0.003812   0.003097   0.011875
     H   26   0.012321   0.018222   0.026638   0.498531   0.487529   0.503473
     H   27   0.001512   0.003701   0.003153   0.019154   0.022489   0.460498


                  H 19       H 20       H 21       H 22       H 23       H 24
 ------------------------------------------------------------------------------
     H   19   4.224593
     H   20   0.470037   4.226708
     H   21   0.469115   0.469580   4.222630
     H   22   0.016880   0.048583   0.018473   4.258529
     H   23   0.048454   0.016623   0.019194   0.460525   4.243680
     H   24   0.005573   0.016022   0.001968   0.047629   0.016196   4.247978
     H   25   0.014603   0.005272   0.001929   0.017022   0.047482   0.459231
     H   26   0.005023   0.005627   0.003417   0.008211   0.019746   0.021591
     H   27   0.000946   0.001114   0.001577   0.002147   0.002430   0.017189


                  H 25       H 26       H 27
 ------------------------------------------
     H   25   4.219466
     H   26   0.062378   2.840031
     H   27   0.016191   0.496374   4.246990


          HEAT OF FORMATION =      -0.600280 KCALS/MOLE

          ZERO POINT ENERGY     143.046 KCAL/MOL

         NOTE: SYSTEM IS NOT A GROUND STATE, THEREFORE ZERO POINT
         ENERGY IS NOT MEANINGFULL. ZERO POINT ENERGY PRINTED
         DOES NOT INCLUDE THE  1 IMAGINARY FREQUENCIES


           NORMAL COORDINATE ANALYSIS (Total motion = 1 Angstrom)


   Root No.       1         2         3         4         5         6         7         8

                 1 A       2 A       3 A       4 A       5 A       6 A       7 A       8 A   

               -2380.3      12.1      24.6      37.7      67.4      77.0      88.6     155.9
  
           1    0.0004    0.0018    0.0015   -0.0023   -0.0043    0.0022    0.0039   -0.0028
           2    0.0003    0.0201    0.0124    0.0249   -0.0210    0.0048    0.0093    0.0072
           3   -0.0001    0.0415    0.0068   -0.0137   -0.0213    0.0057   -0.0229    0.0028
           4    0.0006    0.0018    0.0015   -0.0023   -0.0044    0.0022    0.0039   -0.0025
           5   -0.0003    0.0117    0.0104    0.0082   -0.0040    0.0035    0.0046   -0.0064
           6    0.0001   -0.0063    0.0418    0.0007    0.0113   -0.0101    0.0252   -0.0099
           7    0.0049    0.0094    0.0034    0.0126   -0.0183    0.0027    0.0070    0.0062
           8    0.0043    0.0088    0.0097    0.0024    0.0016    0.0032    0.0032   -0.0099
           9    0.0001    0.0113   -0.0279    0.0159    0.0297    0.0152    0.0407    0.0003
          10   -0.0164    0.0091    0.0035    0.0125   -0.0183    0.0028    0.0067    0.0061
          11   -0.0398    0.0017    0.0078   -0.0118    0.0132    0.0027    0.0010   -0.0111
          12   -0.0040   -0.0234   -0.0017    0.0248    0.0051    0.0377   -0.0242   -0.0021
          13   -0.0001   -0.0340   -0.0087    0.0006   -0.0148    0.0039    0.0074   -0.0071
          14   -0.0001   -0.0223   -0.0299   -0.0195   -0.0262   -0.0142    0.0072   -0.0040
          15    0.0002   -0.0220   -0.0052   -0.0008   -0.0171   -0.0063    0.0020    0.0007
          16   -0.0002   -0.0077   -0.0040    0.0184    0.0222   -0.0161   -0.0172    0.0119
          17   -0.0001   -0.0063   -0.0173    0.0089    0.0118   -0.0231   -0.0163    0.0162
          18    0.0001   -0.0037   -0.0084   -0.0003   -0.0017   -0.0221   -0.0093    0.0077
          19   -0.0015    0.0035    0.0011   -0.0233    0.0288    0.0060   -0.0117    0.0024
          20    0.0066   -0.0089   -0.0008   -0.0148    0.0219    0.0121   -0.0106    0.0095
          21    0.0030   -0.0052   -0.0003   -0.0114    0.0031   -0.0052   -0.0065    0.0045
          22   -0.0088    0.0175    0.0022   -0.0156    0.0106   -0.0041   -0.0010   -0.0124
          23   -0.0413   -0.0046    0.0083    0.0017    0.0062    0.0114    0.0000   -0.0018
          24   -0.0086    0.0069   -0.0053   -0.0143   -0.0058   -0.0156   -0.0022   -0.0038
          25    0.0001    0.0323   -0.0181   -0.0050   -0.0291    0.0119   -0.0226    0.0088
          26    0.0001   -0.0001    0.0667    0.0214   -0.0239   -0.0270    0.0276    0.0758
          27    0.0003    0.0674   -0.0341   -0.0129   -0.0310    0.0289   -0.0458   -0.0321
          28   -0.0005   -0.0232    0.0226    0.0116    0.0091   -0.0067    0.0337   -0.0052
          29    0.0000    0.0450   -0.0414    0.0372   -0.0273    0.0378   -0.0067   -0.0546
          30   -0.0002    0.0669   -0.0331   -0.0131   -0.0309    0.0283   -0.0454   -0.0309
          31    0.0002   -0.0035   -0.0000   -0.0136    0.0070    0.0013    0.0004   -0.0122
          32   -0.0001    0.0221    0.0135    0.0291   -0.0255    0.0049    0.0107    0.0115
          33    0.0000    0.0279    0.0602   -0.0266   -0.0280   -0.0276   -0.0160    0.0822
          34   -0.0007    0.0264   -0.0195   -0.0164   -0.0165    0.0106   -0.0239    0.0003
          35   -0.0006   -0.0116    0.0606   -0.0020   -0.0042   -0.0160    0.0046   -0.0170
          36    0.0010   -0.0313    0.0820    0.0004    0.0164   -0.0259    0.0370   -0.0178
          37   -0.0008   -0.0286    0.0211    0.0001    0.0194   -0.0070    0.0287   -0.0139
          38   -0.0007    0.0310   -0.0407    0.0103    0.0042    0.0225    0.0026   -0.0014
          39   -0.0007   -0.0313    0.0820    0.0004    0.0163   -0.0258    0.0370   -0.0177
          40    0.0006   -0.0082    0.0185    0.0237   -0.0363    0.0164   -0.0279    0.0058
          41    0.0023    0.0294   -0.0374    0.0134    0.0138    0.0130    0.0276   -0.0007
          42   -0.0001    0.0320   -0.0641    0.0178    0.0453    0.0151    0.0714    0.0061
          43    0.0023    0.0324   -0.0108    0.0128   -0.0097   -0.0110    0.0438    0.0106
          44    0.0027   -0.0078    0.0581   -0.0008   -0.0178   -0.0062   -0.0197   -0.0157
          45    0.0012    0.0316   -0.0635    0.0180    0.0450    0.0149    0.0705    0.0062
          46    0.0180   -0.0138    0.0198    0.0154   -0.0323    0.0164   -0.0346    0.0050
          47    0.0655    0.0190   -0.0107   -0.0270    0.0122   -0.0279    0.0284    0.0117
          48    0.0013   -0.0399    0.0119    0.0307   -0.0018    0.0534   -0.0529   -0.0093
          49    0.0176    0.0266   -0.0120    0.0034   -0.0008   -0.0097    0.0435    0.0077
          50    0.0618   -0.0182    0.0237   -0.0054    0.0197    0.0300   -0.0249   -0.0312
          51    0.0114   -0.0440    0.0156    0.0332   -0.0011    0.0596   -0.0588   -0.0141
          52    0.0176    0.0113    0.0017   -0.0066    0.0096    0.0019   -0.0016   -0.0026
          53    0.0660   -0.0081    0.0047    0.0388   -0.0185    0.0194    0.0094    0.0170
          54    0.0039    0.0217   -0.0054   -0.0251   -0.0116   -0.0285    0.0026   -0.0232
          55    0.0003   -0.0561   -0.0110   -0.0484   -0.0581    0.0495    0.0488    0.0369
          56    0.0000   -0.0180   -0.0315   -0.0061   -0.0181   -0.0295   -0.0035   -0.0267
          57   -0.0007   -0.0222    0.0083   -0.0273   -0.0159    0.0367    0.0202    0.0921
          58    0.0004   -0.0261   -0.0070   -0.0008   -0.0059    0.0036    0.0039    0.0102
          59    0.0005   -0.0423   -0.0265   -0.0774   -0.0659    0.0465    0.0537    0.0773
          60   -0.0004   -0.0377   -0.0103    0.0143   -0.0313   -0.0178    0.0013   -0.0592
          61   -0.0000   -0.0404   -0.0121    0.0370   -0.0099   -0.0258   -0.0109   -0.0843
          62    0.0003   -0.0191   -0.0416    0.0024   -0.0247   -0.0525   -0.0096   -0.0793
          63    0.0000   -0.0203   -0.0110    0.0101   -0.0164   -0.0254   -0.0063   -0.0368
          64   -0.0001   -0.0163   -0.0060    0.0195    0.0117   -0.0138   -0.0116    0.0080
          65    0.0007    0.0116   -0.0216    0.0590    0.0374   -0.0670   -0.0436    0.0389
          66   -0.0007    0.0127   -0.0033   -0.0113    0.0177   -0.0201   -0.0173    0.0123
          67    0.0005    0.0128   -0.0026    0.0628    0.0551   -0.0508   -0.0449    0.0352
          68    0.0009   -0.0100   -0.0162   -0.0014    0.0068   -0.0140   -0.0109    0.0115
          69    0.0003   -0.0049   -0.0221    0.0196   -0.0135   -0.0491   -0.0114    0.0099
          70    0.0009    0.0086    0.0021   -0.0274    0.0258    0.0067   -0.0084   -0.0024
          71    0.0014   -0.0159    0.0068   -0.0561    0.0451    0.0464   -0.0146    0.0135
          72    0.0016   -0.0167   -0.0036    0.0033    0.0075   -0.0107   -0.0137    0.0151
          73   -0.0021   -0.0046    0.0032   -0.0577    0.0510    0.0313   -0.0186    0.0101
          74   -0.0003   -0.0074   -0.0026   -0.0057    0.0166    0.0040   -0.0097    0.0086
          75    0.0046   -0.0046    0.0133   -0.0328    0.0093    0.0226   -0.0003   -0.0030
          76    0.1741    0.0191    0.0024    0.0228   -0.0224    0.0001    0.0137    0.0013
          77    0.5779   -0.0032    0.0101   -0.0134    0.0166    0.0078   -0.0038   -0.0127
          78    0.0741   -0.0062   -0.0192    0.0114   -0.0103   -0.0006   -0.0047    0.0308
          79    0.0230    0.0338    0.0032   -0.0405    0.0140   -0.0205    0.0004   -0.0393
          80    0.0621    0.0012    0.0179   -0.0143    0.0120    0.0042    0.0012   -0.0238
          81    0.0115    0.0089   -0.0017   -0.0201   -0.0036   -0.0181   -0.0018   -0.0119


   Root No.       9        10        11        12        13        14        15        16

                 9 A      10 A      11 A      12 A      13 A      14 A      15 A      16 A   

                 160.5     168.9     254.9     283.3     364.3     395.0     451.9     558.8
  
           1    0.0010   -0.0023    0.0083    0.0043   -0.0193   -0.0380    0.0015   -0.0213
           2   -0.0005    0.0151   -0.0209    0.0103   -0.0062   -0.0341    0.0045   -0.0067
           3    0.0045   -0.0007    0.0008   -0.0007    0.0003   -0.0003   -0.0000    0.0001
           4    0.0010   -0.0018    0.0061    0.0045   -0.0158   -0.0330    0.0019   -0.0121
           5    0.0017   -0.0106    0.0303   -0.0062   -0.0163    0.0255   -0.0146    0.0027
           6   -0.0194    0.0067    0.0008   -0.0005   -0.0004    0.0003   -0.0003   -0.0003
           7   -0.0004    0.0122   -0.0068    0.0015    0.0015    0.0313   -0.0097    0.0241
           8    0.0022   -0.0164    0.0348   -0.0059   -0.0177    0.0038   -0.0065   -0.0095
           9    0.0103   -0.0042   -0.0026    0.0030   -0.0032    0.0013   -0.0009    0.0010
          10   -0.0004    0.0120   -0.0062    0.0007    0.0035    0.0386   -0.0105    0.0286
          11    0.0020   -0.0147   -0.0058    0.0091    0.0152   -0.0205    0.0122    0.0770
          12    0.0092   -0.0107    0.0058   -0.0059    0.0092   -0.0111    0.0009    0.0177
          13    0.0030   -0.0060   -0.0039   -0.0097    0.0072   -0.0063   -0.0217   -0.0012
          14    0.0015    0.0003    0.0065    0.0198    0.0041    0.0017    0.0021   -0.0009
          15    0.0001    0.0032   -0.0101   -0.0198   -0.0246    0.0115    0.0421    0.0040
          16   -0.0101   -0.0083    0.0034    0.0116    0.0123   -0.0061   -0.0248   -0.0030
          17   -0.0110   -0.0003   -0.0107   -0.0210   -0.0191    0.0059    0.0164    0.0008
          18   -0.0060    0.0006    0.0086    0.0270   -0.0005    0.0050    0.0131   -0.0002
          19    0.0031    0.0148    0.0073    0.0113   -0.0063    0.0059    0.0279    0.0028
          20    0.0023    0.0247   -0.0140   -0.0247   -0.0037    0.0034   -0.0263   -0.0176
          21    0.0004    0.0126    0.0069    0.0253    0.0084    0.0027   -0.0148   -0.0108
          22    0.0021   -0.0192   -0.0088   -0.0180    0.0218    0.0064    0.0396   -0.0174
          23    0.0016   -0.0006   -0.0158    0.0082    0.0395    0.0196    0.0114   -0.0490
          24   -0.0002   -0.0066   -0.0079   -0.0245    0.0138   -0.0104   -0.0405   -0.0104
          25    0.0132    0.0026   -0.0106    0.0105   -0.0154   -0.0654    0.0105   -0.0276
          26    0.1119   -0.0024   -0.0371    0.0160   -0.0039   -0.0579    0.0119   -0.0137
          27   -0.0559    0.0119    0.0015   -0.0011    0.0005   -0.0004    0.0000    0.0000
          28   -0.0128    0.0107   -0.0103    0.0107   -0.0165   -0.0637    0.0098   -0.0280
          29   -0.1154    0.0471   -0.0348    0.0150   -0.0039   -0.0572    0.0118   -0.0140
          30   -0.0538    0.0114    0.0015   -0.0011    0.0006   -0.0002    0.0000    0.0002
          31    0.0026   -0.0203    0.0460   -0.0086   -0.0255    0.0180   -0.0164   -0.0053
          32   -0.0000    0.0220   -0.0361    0.0155   -0.0037   -0.0575    0.0120   -0.0134
          33    0.1434   -0.0316   -0.0005   -0.0002    0.0006   -0.0011    0.0001    0.0005
          34    0.0154   -0.0139    0.0188    0.0021   -0.0221   -0.0343    0.0004   -0.0207
          35   -0.0193   -0.0077    0.0400   -0.0098   -0.0178    0.0216   -0.0139   -0.0040
          36   -0.0384    0.0133    0.0027   -0.0022    0.0007    0.0006   -0.0004   -0.0011
          37   -0.0119   -0.0053    0.0199    0.0013   -0.0219   -0.0348    0.0002   -0.0209
          38    0.0235   -0.0233    0.0357   -0.0055   -0.0211    0.0226   -0.0146   -0.0010
          39   -0.0383    0.0134    0.0021   -0.0019    0.0007   -0.0010    0.0001   -0.0015
          40   -0.0022    0.0107    0.0042   -0.0071    0.0041    0.0437   -0.0167    0.0272
          41    0.0203   -0.0183    0.0344   -0.0046   -0.0248    0.0212   -0.0143   -0.0186
          42    0.0226   -0.0052   -0.0061    0.0070   -0.0093    0.0071   -0.0026   -0.0091
          43    0.0008    0.0180   -0.0057    0.0036   -0.0106    0.0592   -0.0190    0.0012
          44   -0.0165   -0.0094    0.0406   -0.0111   -0.0165    0.0135   -0.0112   -0.0081
          45    0.0223   -0.0054   -0.0071    0.0076   -0.0086    0.0072   -0.0023   -0.0073
          46   -0.0014    0.0094   -0.0108   -0.0004    0.0137    0.0308   -0.0120    0.0586
          47   -0.0036    0.0286    0.0298   -0.0506    0.0933   -0.0730    0.0129    0.1807
          48    0.0103   -0.0246   -0.0073    0.0112   -0.0088    0.0019   -0.0006    0.0002
          49    0.0001    0.0179   -0.0258    0.0113    0.0056    0.0412   -0.0114    0.0585
          50    0.0068   -0.0504   -0.0687    0.0751   -0.0372    0.0243    0.0100    0.0565
          51    0.0115   -0.0337   -0.0175    0.0246   -0.0215    0.0110    0.0009   -0.0106
          52    0.0020   -0.0023    0.0170   -0.0102    0.0361    0.0047    0.0658   -0.0204
          53    0.0004    0.0221    0.0538   -0.0229    0.1135    0.0081    0.0821   -0.0887
          54   -0.0003   -0.0426   -0.0520   -0.0556   -0.0012   -0.0107   -0.0926   -0.0117
          55   -0.0324   -0.0373    0.0011    0.0009    0.0154   -0.0088   -0.0274   -0.0005
          56    0.0188    0.0130    0.0073    0.0222    0.0061    0.0012   -0.0011   -0.0019
          57   -0.0681   -0.0404   -0.0210   -0.0470   -0.0441    0.0156    0.0615    0.0081
          58   -0.0099   -0.0131    0.0006    0.0026    0.0125   -0.0076   -0.0289   -0.0028
          59   -0.0616   -0.0483    0.0084    0.0228    0.0068   -0.0001   -0.0006    0.0003
          60    0.0453    0.0308   -0.0223   -0.0518   -0.0396    0.0159    0.0646    0.0085
          61    0.0624    0.0345   -0.0202   -0.0510   -0.0143    0.0001    0.0078    0.0036
          62    0.0574    0.0363    0.0189    0.0514    0.0257   -0.0030   -0.0209   -0.0059
          63    0.0279    0.0210   -0.0041   -0.0048   -0.0145    0.0093    0.0317    0.0019
          64   -0.0082   -0.0105    0.0003    0.0034    0.0115   -0.0076   -0.0289   -0.0022
          65   -0.0339   -0.0254   -0.0116   -0.0165   -0.0213    0.0024    0.0148    0.0123
          66   -0.0062    0.0096    0.0144    0.0409   -0.0008    0.0090    0.0241   -0.0023
          67   -0.0308   -0.0261   -0.0010    0.0075    0.0083   -0.0084   -0.0318    0.0029
          68   -0.0062    0.0050   -0.0102   -0.0201   -0.0177    0.0067    0.0158   -0.0019
          69   -0.0143   -0.0192    0.0156    0.0425    0.0010    0.0022    0.0246    0.0148
          70    0.0046    0.0096    0.0029    0.0011   -0.0020    0.0066    0.0352   -0.0016
          71    0.0168    0.0796   -0.0039   -0.0143   -0.0481    0.0064   -0.0546    0.0060
          72   -0.0046    0.0191    0.0147    0.0442    0.0006    0.0003   -0.0335   -0.0021
          73    0.0140    0.0661    0.0185    0.0158   -0.0588    0.0055    0.0021    0.0370
          74   -0.0010    0.0128   -0.0158   -0.0248    0.0050    0.0037   -0.0200   -0.0229
          75    0.0116    0.0312    0.0067    0.0359    0.0198    0.0088   -0.0249   -0.0268
          76    0.0002   -0.0035    0.0415   -0.0275    0.0394    0.0250    0.0483   -0.0629
          77    0.0025   -0.0165   -0.0360    0.0237    0.0127    0.0049   -0.0010    0.0311
          78    0.0002    0.0487    0.0796   -0.0920    0.0860   -0.0643    0.0045    0.0379
          79    0.0025   -0.0648   -0.0794   -0.0393   -0.0191    0.0088   -0.0383   -0.0017
          80    0.0019   -0.0351   -0.0685    0.0640    0.0027    0.0506   -0.0080   -0.0551
          81   -0.0001   -0.0192   -0.0277   -0.0044    0.0007    0.0010   -0.0487   -0.0138


   Root No.      17        18        19        20        21        22        23        24

                17 A      18 A      19 A      20 A      21 A      22 A      23 A      24 A   

                 683.6     797.1     799.5     883.9     894.0     922.1     952.8    1004.3
  
           1   -0.0051   -0.0009   -0.0001    0.0017   -0.0032   -0.0045    0.0143   -0.0027
           2   -0.0014   -0.0009    0.0002    0.0015   -0.0033   -0.0057    0.0216   -0.0106
           3    0.0002   -0.0002    0.0000    0.0071    0.0033    0.0022    0.0007   -0.0087
           4   -0.0016   -0.0001    0.0000   -0.0001    0.0001    0.0002   -0.0010   -0.0008
           5   -0.0075   -0.0031    0.0005    0.0036   -0.0076   -0.0101    0.0269   -0.0032
           6    0.0005    0.0055    0.0176    0.0170    0.0065    0.0026    0.0001    0.0036
           7    0.0011   -0.0010    0.0002    0.0002    0.0001    0.0004   -0.0034    0.0000
           8   -0.0012    0.0011   -0.0003   -0.0026    0.0061    0.0100   -0.0346    0.0109
           9   -0.0026    0.0055    0.0160   -0.0146   -0.0072   -0.0047   -0.0015    0.0078
          10    0.0026    0.0001    0.0004   -0.0018    0.0028    0.0045   -0.0125    0.0009
          11    0.0247    0.0016    0.0005   -0.0036    0.0064    0.0061   -0.0088   -0.0099
          12   -0.0262    0.0010   -0.0032   -0.0081   -0.0009    0.0045    0.0001   -0.0105
          13    0.0042   -0.0003    0.0007   -0.0022    0.0028    0.0078    0.0065    0.0064
          14   -0.0018    0.0002    0.0001   -0.0021    0.0037    0.0079    0.0075    0.0061
          15   -0.0056    0.0009   -0.0010   -0.0010    0.0087   -0.0225   -0.0026    0.0025
          16    0.0002   -0.0116    0.0045   -0.0052    0.0128   -0.0073    0.0008   -0.0028
          17    0.0033   -0.0125    0.0058   -0.0051    0.0023    0.0248    0.0062   -0.0026
          18   -0.0056   -0.0041    0.0010   -0.0024    0.0123   -0.0233   -0.0029   -0.0011
          19   -0.0052   -0.0121    0.0032    0.0050   -0.0119    0.0035   -0.0074   -0.0049
          20    0.0049   -0.0120    0.0040    0.0046   -0.0055   -0.0278   -0.0170   -0.0050
          21    0.0021   -0.0067    0.0030    0.0019   -0.0122    0.0230   -0.0009   -0.0027
          22    0.0031    0.0033   -0.0012    0.0021   -0.0032   -0.0062    0.0066    0.0076
          23   -0.0224    0.0046   -0.0040    0.0032    0.0006   -0.0054    0.0073    0.0089
          24    0.0319   -0.0015    0.0038    0.0002   -0.0123    0.0183    0.0062    0.0041
          25   -0.0018   -0.0105   -0.0421   -0.0680   -0.0211   -0.0036   -0.0513    0.0726
          26    0.0012    0.0026    0.0017   -0.0014    0.0059    0.0096   -0.0350    0.0173
          27    0.0000   -0.0075   -0.0235   -0.0293   -0.0124   -0.0069   -0.0005    0.0169
          28   -0.0008    0.0148    0.0409    0.0631    0.0343    0.0273   -0.0412   -0.0210
          29    0.0019    0.0012   -0.0026   -0.0035    0.0051    0.0092   -0.0351    0.0179
          30    0.0002   -0.0072   -0.0234   -0.0292   -0.0120   -0.0062   -0.0028    0.0180
          31   -0.0121   -0.0065    0.0006    0.0099   -0.0228   -0.0374    0.1362   -0.0614
          32    0.0018    0.0017   -0.0003   -0.0026    0.0056    0.0095   -0.0355    0.0173
          33   -0.0007   -0.0068   -0.0217   -0.0313   -0.0131   -0.0072   -0.0018    0.0191
          34   -0.0044    0.0143    0.0450    0.0520    0.0222    0.0139   -0.0114   -0.0178
          35   -0.0012   -0.0314   -0.0872   -0.0335   -0.0157   -0.0062    0.0051   -0.0200
          36    0.0048   -0.0225   -0.0673   -0.0355   -0.0128   -0.0046   -0.0013   -0.0021
          37   -0.0035   -0.0146   -0.0450   -0.0527   -0.0207   -0.0086   -0.0181    0.0401
          38   -0.0138    0.0271    0.0877    0.0375    0.0071   -0.0019    0.0014    0.0369
          39    0.0051   -0.0226   -0.0673   -0.0355   -0.0128   -0.0049    0.0006   -0.0030
          40   -0.0344    0.0129    0.0386   -0.0492   -0.0247   -0.0114   -0.0048   -0.0112
          41    0.0099   -0.0307   -0.0859    0.0267    0.0176    0.0168   -0.0195   -0.0205
          42    0.0225   -0.0239   -0.0660    0.0324    0.0165    0.0098    0.0018   -0.0080
          43    0.0222   -0.0158   -0.0401    0.0531    0.0202    0.0089   -0.0017    0.0279
          44   -0.0246    0.0322    0.0855   -0.0287   -0.0138   -0.0069   -0.0262    0.0487
          45    0.0226   -0.0242   -0.0651    0.0327    0.0155    0.0092    0.0020   -0.0076
          46    0.0028   -0.0210   -0.0446    0.0828    0.0277    0.0126    0.0047    0.0559
          47   -0.1352   -0.0026   -0.0167    0.0170    0.0006    0.0123    0.0283    0.0166
          48    0.0241   -0.0100   -0.0233    0.0350    0.0145    0.0057   -0.0015    0.0160
          49   -0.0027    0.0084    0.0431   -0.0650   -0.0456   -0.0346    0.0182   -0.0145
          50    0.1618   -0.0099    0.0170    0.0021   -0.0283   -0.0515    0.0337    0.0312
          51    0.0589   -0.0108   -0.0204    0.0355    0.0105   -0.0040    0.0050    0.0222
          52    0.0361   -0.0017    0.0037    0.0036   -0.0206    0.0180    0.0114    0.0102
          53    0.1400    0.0399    0.0047   -0.0344    0.0391   -0.0029    0.0256   -0.0424
          54   -0.0036    0.0283   -0.0077   -0.0216    0.0604   -0.0485   -0.0062   -0.0315
          55    0.0025    0.0441   -0.0179    0.0284   -0.0562   -0.0408   -0.0566   -0.0465
          56   -0.0015   -0.0029    0.0012   -0.0039    0.0094    0.0001    0.0077    0.0082
          57   -0.0032   -0.0169    0.0073   -0.0132    0.0178    0.0590    0.0396    0.0255
          58    0.0033   -0.0118    0.0052   -0.0109    0.0268   -0.0099    0.0157    0.0199
          59   -0.0020    0.0335   -0.0141    0.0206   -0.0419   -0.0211   -0.0378   -0.0328
          60   -0.0042    0.0299   -0.0122    0.0216   -0.0555    0.0292   -0.0261   -0.0346
          61    0.0063    0.0120   -0.0036    0.0093   -0.0430    0.0871    0.0078   -0.0122
          62   -0.0042    0.0159   -0.0078    0.0091   -0.0009   -0.0807   -0.0345   -0.0144
          63   -0.0066    0.0085   -0.0047    0.0046    0.0045   -0.0582   -0.0211   -0.0074
          64    0.0031   -0.0071    0.0034   -0.0090    0.0213   -0.0025    0.0146    0.0145
          65    0.0024    0.1195   -0.0436    0.0291   -0.0601   -0.0022   -0.0126    0.0071
          66   -0.0099   -0.0147    0.0038    0.0076   -0.0151   -0.0164   -0.0319   -0.0398
          67    0.0027    0.1015   -0.0377    0.0296   -0.0577   -0.0284   -0.0316   -0.0120
          68    0.0027   -0.0306    0.0121   -0.0091    0.0127    0.0172    0.0055   -0.0045
          69   -0.0088    0.0601   -0.0234    0.0039    0.0051    0.0029    0.0326    0.0437
          70   -0.0025   -0.0038    0.0000    0.0084   -0.0187    0.0039   -0.0013    0.0104
          71    0.0221    0.1106   -0.0329   -0.0252    0.0535    0.0130    0.0413    0.0183
          72   -0.0024   -0.0169    0.0076   -0.0099    0.0163    0.0063   -0.0130   -0.0376
          73    0.0177    0.0956   -0.0276   -0.0298    0.0555    0.0364    0.0383   -0.0048
          74    0.0020   -0.0313    0.0101    0.0088   -0.0168   -0.0231   -0.0226   -0.0076
          75   -0.0062    0.0591   -0.0214    0.0020    0.0022    0.0098    0.0325    0.0440
          76    0.0644    0.0329    0.0034   -0.0414    0.0535    0.0548   -0.0603   -0.0721
          77   -0.0140   -0.0071   -0.0001    0.0087   -0.0156   -0.0126    0.0113    0.0195
          78   -0.0151   -0.0099   -0.0146    0.0318    0.0009   -0.0352    0.0029    0.0369
          79   -0.0922    0.0251   -0.0173   -0.0111    0.0653   -0.0664   -0.0131   -0.0224
          80   -0.1342    0.0130   -0.0112   -0.0102    0.0045    0.1235   -0.0112   -0.0322
          81   -0.0140    0.0024    0.0002   -0.0044   -0.0079    0.0601   -0.0008   -0.0107


   Root No.      25        26        27        28        29        30        31        32

                25 A      26 A      27 A      28 A      29 A      30 A      31 A      32 A   

                1011.1    1027.9    1085.8    1123.8    1134.7    1140.7    1158.7    1164.6
  
           1   -0.0018   -0.0002   -0.0078    0.0097   -0.0686   -0.0129    0.0130   -0.0219
           2   -0.0084   -0.0054    0.0104   -0.0048    0.0181    0.0016    0.0059   -0.0147
           3    0.0130    0.0015    0.0018    0.0011    0.0014    0.0011    0.0244    0.0112
           4   -0.0008   -0.0010    0.0081   -0.0103    0.0735    0.0141   -0.0156    0.0279
           5   -0.0015    0.0008   -0.0120    0.0067   -0.0202   -0.0002   -0.0163    0.0403
           6   -0.0068   -0.0012   -0.0024   -0.0019   -0.0017   -0.0015   -0.0326   -0.0148
           7   -0.0005   -0.0007    0.0073   -0.0010    0.0036   -0.0002    0.0024   -0.0099
           8    0.0076    0.0033    0.0060   -0.0060    0.0205    0.0008    0.0153   -0.0380
           9   -0.0090   -0.0002    0.0020    0.0029    0.0023    0.0022    0.0346    0.0141
          10    0.0008   -0.0010    0.0002   -0.0034   -0.0004   -0.0016    0.0025    0.0003
          11   -0.0078   -0.0073    0.0127   -0.0026   -0.0133   -0.0046    0.0001    0.0044
          12    0.0108   -0.0021   -0.0053   -0.0111   -0.0020   -0.0052   -0.0224   -0.0104
          13    0.0045   -0.0086    0.0042    0.0056    0.0072   -0.0674   -0.0015    0.0055
          14    0.0023    0.0118    0.0117   -0.0204   -0.0161    0.0322   -0.0022    0.0059
          15    0.0041   -0.0199   -0.0003   -0.0076   -0.0099    0.0401   -0.0021    0.0054
          16   -0.0022    0.0059   -0.0055   -0.0043   -0.0059    0.0731    0.0024   -0.0081
          17   -0.0020   -0.0020   -0.0132    0.0228    0.0189   -0.0293    0.0030   -0.0077
          18   -0.0004    0.0019   -0.0018    0.0078    0.0118   -0.0495    0.0031   -0.0080
          19   -0.0039    0.0075    0.0034   -0.0053   -0.0069   -0.0095   -0.0044    0.0118
          20   -0.0009   -0.0093    0.0122   -0.0174   -0.0132   -0.0100   -0.0023    0.0049
          21   -0.0028    0.0074    0.0051   -0.0017   -0.0019   -0.0128   -0.0014    0.0042
          22    0.0063   -0.0075   -0.0045   -0.0009    0.0064    0.0053    0.0042   -0.0097
          23    0.0033    0.0136   -0.0014    0.0109    0.0112    0.0023    0.0031   -0.0097
          24    0.0052   -0.0139   -0.0111   -0.0028    0.0034    0.0165    0.0019   -0.0040
          25   -0.0464    0.0071   -0.0396    0.0131   -0.0850   -0.0141   -0.0930   -0.0110
          26    0.0144    0.0093   -0.0178    0.0074   -0.0221   -0.0007   -0.0108    0.0324
          27   -0.0259   -0.0030   -0.0017   -0.0019   -0.0001   -0.0012   -0.0239   -0.0149
          28    0.0882    0.0210   -0.0239    0.0212   -0.0739   -0.0064    0.0764    0.0643
          29    0.0137    0.0092   -0.0180    0.0073   -0.0222   -0.0008   -0.0149    0.0304
          30   -0.0246   -0.0022   -0.0035   -0.0009   -0.0028   -0.0011   -0.0263   -0.0077
          31   -0.0488   -0.0300    0.0487   -0.0162    0.0377   -0.0016    0.0339   -0.0799
          32    0.0135    0.0087   -0.0160    0.0062   -0.0203   -0.0012   -0.0088    0.0212
          33   -0.0276   -0.0028   -0.0029   -0.0014   -0.0017   -0.0012   -0.0294   -0.0135
          34    0.0504    0.0104   -0.0066   -0.0026    0.0486    0.0113   -0.0666    0.0121
          35    0.0524    0.0125   -0.0110    0.0120   -0.0076    0.0052    0.0240    0.0576
          36    0.0057    0.0013    0.0021    0.0017    0.0013    0.0013    0.0241    0.0115
          37   -0.0324    0.0022   -0.0117   -0.0033    0.0525    0.0138    0.0283    0.0624
          38   -0.0377    0.0003   -0.0269    0.0017   -0.0134   -0.0005   -0.0594    0.0255
          39    0.0051    0.0011    0.0024    0.0019    0.0017    0.0014    0.0247    0.0098
          40    0.0443    0.0119   -0.0002    0.0155   -0.0246    0.0009    0.0670    0.0122
          41    0.0604    0.0128   -0.0074    0.0027   -0.0056   -0.0008   -0.0271   -0.0399
          42    0.0079    0.0002   -0.0029   -0.0021    0.0012   -0.0003   -0.0287   -0.0096
          43   -0.0305   -0.0018   -0.0200   -0.0028   -0.0385   -0.0123   -0.0652   -0.0264
          44   -0.0374    0.0030   -0.0104    0.0030   -0.0050   -0.0004    0.0402   -0.0023
          45    0.0072   -0.0010   -0.0023   -0.0037   -0.0045   -0.0031   -0.0249   -0.0119
          46   -0.0609   -0.0035   -0.0435   -0.0132    0.0141    0.0031    0.0920    0.0324
          47    0.0015    0.0021   -0.0773   -0.0330    0.0070   -0.0057    0.0139   -0.0146
          48   -0.0276   -0.0045   -0.0015   -0.0026    0.0014   -0.0000    0.0269    0.0142
          49    0.0860    0.0322   -0.0149    0.0307    0.0083    0.0132   -0.0836   -0.0362
          50    0.0323    0.0431    0.0028    0.0939    0.0042    0.0406   -0.0236   -0.0073
          51   -0.0231    0.0048    0.0023    0.0259    0.0011    0.0124    0.0198    0.0097
          52    0.0119   -0.0382   -0.0137   -0.0025    0.0049    0.0216    0.0037   -0.0043
          53   -0.0181    0.0284   -0.0814   -0.0567   -0.0063   -0.0407   -0.0096    0.0585
          54   -0.0266    0.0895   -0.0075   -0.0181   -0.0059   -0.0487   -0.0061    0.0171
          55   -0.0250   -0.0090   -0.0479    0.0558    0.0411   -0.0033    0.0100   -0.0278
          56    0.0053   -0.0036    0.0095   -0.0150   -0.0122    0.0131   -0.0028    0.0080
          57    0.0075    0.0574    0.0396   -0.0496   -0.0334    0.0208   -0.0048    0.0126
          58    0.0162   -0.0421    0.0104   -0.0030   -0.0023   -0.0636   -0.0054    0.0166
          59   -0.0199    0.0131   -0.0278    0.0235    0.0156    0.0509    0.0065   -0.0195
          60   -0.0294    0.0836   -0.0142    0.0045    0.0059    0.0745    0.0086   -0.0256
          61   -0.0201    0.1069    0.0123   -0.0122   -0.0014    0.0053    0.0044   -0.0135
          62    0.0012   -0.0740   -0.0288    0.0284    0.0155    0.0090    0.0012   -0.0035
          63    0.0023   -0.0512   -0.0177    0.0154    0.0067    0.0172    0.0001   -0.0005
          64    0.0101   -0.0169    0.0045   -0.0045   -0.0054    0.0570    0.0027   -0.0104
          65    0.0075   -0.0153    0.0275   -0.0195   -0.0178   -0.0539   -0.0083    0.0255
          66   -0.0288    0.0555   -0.0245    0.0147    0.0167   -0.0501    0.0013    0.0003
          67   -0.0038   -0.0086    0.0104   -0.0368   -0.0279    0.0159   -0.0075    0.0231
          68   -0.0031   -0.0023   -0.0162    0.0230    0.0183   -0.0093    0.0041   -0.0113
          69    0.0220    0.0169    0.0485   -0.0131   -0.0093   -0.0597   -0.0029    0.0025
          70    0.0078   -0.0154    0.0197   -0.0161   -0.0127   -0.0342   -0.0050    0.0120
          71    0.0121   -0.0157   -0.0205    0.0226    0.0209    0.0430    0.0097   -0.0269
          72   -0.0286    0.0588   -0.0359    0.0230    0.0148    0.0491    0.0029   -0.0033
          73   -0.0032   -0.0022   -0.0542    0.0566    0.0414    0.0263    0.0078   -0.0170
          74   -0.0029   -0.0075    0.0124   -0.0182   -0.0151   -0.0113   -0.0038    0.0089
          75    0.0244    0.0194    0.0625   -0.0494   -0.0261   -0.0111    0.0012   -0.0095
          76   -0.0469   -0.0398    0.0815    0.0236   -0.0721   -0.0051   -0.0229    0.0058
          77    0.0153    0.0089   -0.0178   -0.0332    0.0234   -0.0106    0.0153   -0.0202
          78   -0.0033    0.0391    0.1053    0.1904    0.0025    0.0735   -0.0205    0.0286
          79   -0.0263    0.0818    0.0238    0.0169   -0.0106   -0.0374   -0.0117    0.0343
          80   -0.0220   -0.0980    0.0109    0.0728   -0.0291    0.0595   -0.0223    0.0508
          81   -0.0051   -0.0464   -0.0035    0.0228   -0.0109    0.0345   -0.0077    0.0180


   Root No.      33        34        35        36        37        38        39        40

                33 A      34 A      35 A      36 A      37 A      38 A      39 A      40 A   

                1176.6    1184.9    1197.8    1203.7    1210.4    1213.7    1217.2    1221.1
  
           1    0.0008    0.0073   -0.0000    0.0008   -0.0004    0.0008    0.0001    0.0008
           2    0.0053    0.0083   -0.0056    0.0014    0.0006    0.0007    0.0003   -0.0002
           3    0.0004   -0.0033   -0.0023    0.0019    0.0020    0.0174    0.0144    0.0016
           4   -0.0023   -0.0091    0.0007   -0.0005    0.0003   -0.0012   -0.0004   -0.0009
           5   -0.0127   -0.0138    0.0039    0.0052    0.0004   -0.0034   -0.0005   -0.0013
           6   -0.0007    0.0049    0.0040   -0.0032   -0.0019   -0.0204    0.0089   -0.0071
           7    0.0024   -0.0329    0.0363   -0.0328   -0.0051    0.0042   -0.0003    0.0052
           8    0.0121    0.0148   -0.0026   -0.0059   -0.0007    0.0037    0.0002    0.0023
           9    0.0006   -0.0013   -0.0003   -0.0003   -0.0012   -0.0099   -0.0235    0.0020
          10   -0.0069    0.0401   -0.0271    0.0287    0.0018   -0.0018    0.0002   -0.0018
          11   -0.0139    0.0032    0.0173   -0.0044   -0.0057    0.0012   -0.0001    0.0043
          12   -0.0011   -0.0028   -0.0012    0.0027    0.0012    0.0174    0.0008    0.0040
          13    0.0060    0.0032   -0.0040   -0.0092    0.0127   -0.0021    0.0013    0.0062
          14    0.0020    0.0038   -0.0079   -0.0126    0.0123   -0.0022    0.0016    0.0068
          15    0.0226    0.0064    0.0081    0.0004    0.0059   -0.0003    0.0005    0.0045
          16   -0.0100   -0.0071    0.0002    0.0102   -0.0152   -0.0020    0.0028    0.0070
          17    0.0045   -0.0040    0.0195    0.0254   -0.0054   -0.0011    0.0014    0.0050
          18   -0.0380   -0.0127   -0.0256   -0.0113   -0.0154   -0.0023    0.0023    0.0015
          19    0.0394    0.0063   -0.0028   -0.0097   -0.0306    0.0048   -0.0024   -0.0085
          20   -0.0250   -0.0014   -0.0136   -0.0048    0.0066    0.0016   -0.0027   -0.0131
          21    0.0073    0.0090    0.0312    0.0274    0.0336    0.0019   -0.0040   -0.0097
          22   -0.0321   -0.0024    0.0069    0.0059    0.0358   -0.0009   -0.0019   -0.0044
          23    0.0211   -0.0124   -0.0021   -0.0067   -0.0042    0.0003   -0.0009   -0.0022
          24    0.0109   -0.0044   -0.0116   -0.0166   -0.0202    0.0007    0.0007    0.0020
          25   -0.0139   -0.0033    0.0172   -0.0063   -0.0067   -0.0514   -0.0380   -0.0046
          26   -0.0097   -0.0122    0.0030    0.0035    0.0004    0.0032   -0.0031    0.0011
          27    0.0008    0.0048    0.0024   -0.0028   -0.0015   -0.0147   -0.0024   -0.0030
          28   -0.0107   -0.0245    0.0025    0.0058    0.0049    0.0484    0.0366    0.0054
          29   -0.0098   -0.0107    0.0044    0.0023   -0.0006   -0.0080    0.0017   -0.0032
          30   -0.0017    0.0022    0.0026   -0.0013   -0.0016   -0.0154   -0.0027   -0.0037
          31    0.0226    0.0328   -0.0167    0.0008    0.0006    0.0033    0.0005   -0.0003
          32   -0.0065   -0.0065    0.0024    0.0020    0.0002   -0.0014   -0.0001   -0.0002
          33   -0.0005    0.0051    0.0042   -0.0035   -0.0025   -0.0263    0.0050   -0.0082
          34   -0.0018    0.0102   -0.0185    0.0137   -0.0050   -0.0763   -0.1627    0.0091
          35   -0.0088   -0.0110   -0.0112    0.0146   -0.0014   -0.0154   -0.1302    0.0214
          36   -0.0006   -0.0042    0.0023   -0.0013   -0.0003    0.0074   -0.0038    0.0036
          37   -0.0005   -0.0039   -0.0259    0.0213    0.0155    0.0684    0.1652   -0.0199
          38   -0.0110   -0.0007   -0.0007    0.0077    0.0053    0.0084    0.1310   -0.0252
          39    0.0015   -0.0008   -0.0057    0.0037    0.0018    0.0065   -0.0033    0.0012
          40    0.0027   -0.0221    0.0556   -0.0556   -0.0174   -0.1270    0.0610   -0.0486
          41    0.0092    0.0147    0.0116   -0.0213   -0.0048   -0.0707    0.0868   -0.0388
          42    0.0004    0.0033   -0.0062    0.0045    0.0025    0.0040    0.0076   -0.0005
          43    0.0025   -0.0488    0.0151   -0.0169    0.0052    0.1386   -0.0614    0.0526
          44    0.0118   -0.0125   -0.0170    0.0035    0.0060    0.0772   -0.0863    0.0380
          45   -0.0015   -0.0002    0.0058   -0.0033   -0.0013    0.0049    0.0071    0.0007
          46    0.0173    0.0252   -0.0423    0.0230    0.0055   -0.0582   -0.0163   -0.0169
          47    0.0745   -0.0778   -0.0870    0.0294    0.0356   -0.0185   -0.0055   -0.0344
[...]
    5124     -24.57846     27.74839          3.16994   6.57640   199   % 16.3303
    5169     -24.58652     27.81650          3.22997   6.63643   200   % 16.4088
    5211     -24.59455     27.89901          3.30446   6.71092   201   % 16.4864
    5256     -24.60290     27.97059          3.36770   6.77416   202   % 16.5643
    5299     -24.61019     28.04990          3.43972   6.84618   203   % 16.6379
    5341     -24.61813     28.13618          3.51805   6.92451   204   % 16.7148
    5386     -24.62608     28.22036          3.59428   7.00074   205   % 16.7920
    5431     -24.63401     28.30163          3.66762   7.07408   206   % 16.8690
    5475     -24.64194     28.38450          3.74256   7.14902   207   % 16.9460
    5521     -24.65011     28.44889          3.79877   7.20523   208   % 17.0232
    5567     -24.65745     28.51775          3.86030   7.26676   209   % 17.0973
    5611     -24.66435     28.58392          3.91956   7.32603   210   % 17.1643
    5656     -24.67219     28.65087          3.97868   7.38514   211   % 17.2412
    5699     -24.67933     28.71212          4.03280   7.43926   212   % 17.3107
    5743     -24.68679     28.78979          4.10300   7.50946   213   % 17.3839
    5797     -24.69544     28.89947          4.20403   7.61049   214   % 17.4688
    5844     -24.70324     28.96549          4.26225   7.66871   215   % 17.5456
    5891     -24.71100     29.03617          4.32517   7.73163   216   % 17.6222
    5937     -24.71872     29.12364          4.40492   7.81138   217   % 17.6986
    5982     -24.72376     29.18246          4.45870   7.86516   218   % 17.7723
    6033     -24.73390     29.27517          4.54127   7.94773   219   % 17.8495
    6080     -24.74157     29.35191          4.61034   8.01680   220   % 17.9259
    6125     -24.74887     29.42511          4.67625   8.08271   221   % 17.9991
    6170     -24.75687     29.50690          4.75003   8.15649   222   % 18.0733
    6216     -24.76351     29.58004          4.81653   8.22300   223   % 18.1506
    6262     -24.77164     29.67008          4.89845   8.30491   224   % 18.2263
    6307     -24.77834     29.73335          4.95501   8.36148   225   % 18.2969
    6359     -24.78607     29.81606          5.02999   8.43645   226   % 18.3754
    6408     -24.79354     29.87870          5.08517   8.49163   227   % 18.4519
    6454     -24.80097     29.97557          5.17460   8.58106   228   % 18.5283
    6489     -24.80737     30.05170          5.24433   8.65079   229   % 18.6004
    6545     -24.81565     30.14294          5.32728   8.73375   230   % 18.6802
    6592     -24.82332     30.20483          5.38151   8.78797   231   % 18.7576
    6637     -24.82991     30.31169          5.48178   8.88824   232   % 18.8290
    6684     -24.83716     30.40295          5.56580   8.97226   233   % 18.9053
    6730     -24.84411     30.47858          5.63447   9.04093   234   % 18.9789
    6775     -24.85078     30.54422          5.69345   9.09991   235   % 19.0496
    6822     -24.86436     30.61114          5.74678   9.15324   236   % 19.1323
    6869     -24.86469     30.72473          5.86004   9.26650   237   % 19.1982
    6915     -24.87175     30.78743          5.91568   9.32214   238   % 19.2732
    6963     -24.87870     30.89354          6.01483   9.42130   239   % 19.3494
    7010     -24.88562     30.97100          6.08539   9.49185   240   % 19.4257
    7054     -24.89222     31.05217          6.15995   9.56641   241   % 19.4970
    7100     -24.89903     31.13148          6.23245   9.63891   242   % 19.5719
    7147     -24.90443     31.21278          6.30835   9.71481   243   % 19.6502
    7203     -24.91293     31.30496          6.39203   9.79849   244   % 19.7254
    7251     -24.91931     31.36983          6.45051   9.85697   245   % 19.8001
    7308     -24.92662     31.45172          6.52510   9.93156   246   % 19.8787
    7356     -24.93316     31.51170          6.57854   9.98500   247   % 19.9545
    7402     -24.93917     31.62351          6.68434  10.09080   248   % 20.0335
    7458     -24.94651     31.72898          6.78247  10.18893   249   % 20.1043
    7506     -24.95255     31.80079          6.84824  10.25470   250   % 20.1784
    7556     -24.95932     31.90016          6.94084  10.34730   251   % 20.2515
    7604     -24.96401     31.98084          7.01683  10.42329   252   % 20.3253
    7654     -24.96832     32.07453          7.10621  10.51267   253   % 20.4016
    7709     -24.97863     32.18799          7.20936  10.61582   254   % 20.4760
    7760     -24.98494     32.25446          7.26952  10.67598   255   % 20.5504
    7806     -24.99107     32.33402          7.34294  10.74940   256   % 20.6226
    7864     -24.99786     32.45445          7.45659  10.86305   257   % 20.7029
    7911     -25.00380     32.53277          7.52897  10.93543   258   % 20.7742
    7969     -25.01068     32.62386          7.61318  11.01964   259   % 20.8559
    8017     -25.01663     32.72659          7.70996  11.11642   260   % 20.9277
    8063     -25.02221     32.80883          7.78662  11.19308   261   % 20.9952
    8122     -25.02925     32.94494          7.91569  11.32215   262   % 21.0805
    8168     -25.03502     33.01239          7.97737  11.38383   263   % 21.1508
    8215     -25.04095     33.15054          8.10959  11.51605   264   % 21.2234
    8265     -25.04667     33.21968          8.17301  11.57947   265   % 21.2976
    8323     -25.05359     33.32208          8.26849  11.67495   266   % 21.3793
    8383     -25.05985     33.42358          8.36374  11.77020   267   % 21.4570
    8436     -25.06705     33.52101          8.45396  11.86042   268   % 21.5360
    8492     -25.07190     33.61058          8.53868  11.94514   269   % 21.6078
    8543     -25.07793     33.68987          8.61194  12.01840   270   % 21.6842
    8592     -25.08266     33.78684          8.70418  12.11064   271   % 21.7559
    8651     -25.08968     33.87493          8.78525  12.19171   272   % 21.8325
    8697     -25.09402     33.96076          8.86674  12.27320   273   % 21.9038
    8756     -25.10119     34.06185          8.96066  12.36712   274   % 21.9808
    8816     -25.10735     34.16669          9.05934  12.46580   275   % 22.0599
    8875     -25.11339     34.26769          9.15430  12.56077   276   % 22.1384
    8923     -25.11806     34.34396          9.22591  12.63237   277   % 22.2135
    8991     -25.12526     34.45787          9.33261  12.73907   278   % 22.2941
    9040     -25.13034     34.52325          9.39291  12.79937   279   % 22.3680
    9101     -25.13255     34.63628          9.50373  12.91019   280   % 22.4485
    9158     -25.14237     34.72357          9.58120  12.98766   281   % 22.5247
    9222     -25.14883     34.85879          9.70997  13.11643   282   % 22.6091


 IRC CALCULATION COMPLETE 


           EXCESS KINETIC ENERGY ENTERED INTO SYSTEM =    0.100000
           INITIAL VELOCITY IN DRC (Angstroms/Femtosecond)
        -0.00039        -0.00026         0.00006
        -0.00060         0.00031        -0.00011
        -0.00495        -0.00429        -0.00014
         0.01641         0.03981         0.00402
         0.00014         0.00010        -0.00024
         0.00020         0.00011        -0.00007
         0.00151        -0.00657        -0.00305
         0.00878         0.04131         0.00862
        -0.00014        -0.00011        -0.00026
         0.00054        -0.00000         0.00020
        -0.00020         0.00015        -0.00001
         0.00074         0.00065        -0.00105
         0.00079         0.00067         0.00072
        -0.00059        -0.00231         0.00006
        -0.00231        -0.00269        -0.00117
        -0.01802        -0.06552        -0.00129
        -0.01764        -0.06178        -0.01141
        -0.01761        -0.06598        -0.00390
        -0.00031        -0.00003         0.00070
        -0.00039        -0.00050         0.00039
         0.00001        -0.00034        -0.00002
         0.00008        -0.00069         0.00070
        -0.00046        -0.00094        -0.00028
        -0.00087        -0.00135        -0.00157
         0.00206         0.00027        -0.00457
        -0.17412        -0.57787        -0.07407
        -0.02300        -0.06207        -0.01154

 GEOMETRY PRIORITY, STEP = 0.1000 ANGSTROMS



     POINT   POTENTIAL  +  ENERGY LOST   =   TOTAL      ERROR    REF%   MOVEMENT
       1      -0.60028      0.00000         -0.60028   0.00000     1   %  0.0000
       5      -4.75245      0.41809         -4.33436  -0.90325     2   %  0.2810
      32      -6.44750      2.11858         -4.32892  -0.89781     3   %  0.3422
      62      -7.87342      3.55036         -4.32306  -0.89196     4   %  0.4228
      87      -9.07195      4.75380         -4.31815  -0.88704     5   %  0.5120
     107     -10.14527      5.83097         -4.31430  -0.88319     6   %  0.6009
     125     -11.13950      6.82862         -4.31089  -0.87978     7   %  0.6884
     141     -12.06899      7.76127         -4.30772  -0.87661     8   %  0.7752
     156     -12.94225      8.63748         -4.30477  -0.87366     9   %  0.8635
     170     -13.77059      9.46861         -4.30199  -0.87088    10   %  0.9533
     184     -14.56121     10.26187         -4.29935  -0.86824    11   %  1.0431
     197     -15.31429     11.01746         -4.29682  -0.86572    12   %  1.1320
     208     -15.99413     11.69961         -4.29452  -0.86342    13   %  1.2161
     219     -16.59770     12.30525         -4.29245  -0.86134    14   %  1.2963
     229     -17.14113     12.85058         -4.29054  -0.85944    15   %  1.3722
     238     -17.63481     13.34604         -4.28878  -0.85767    16   %  1.4445
     246     -18.08623     13.79911         -4.28712  -0.85601    17   %  1.5141
     254     -18.50092     14.21536         -4.28556  -0.85445    18   %  1.5814
     262     -18.88330     14.59922         -4.28408  -0.85298    19   %  1.6471
     269     -19.23692     14.95424         -4.28268  -0.85158    20   %  1.7116
     276     -19.56471     15.28336         -4.28135  -0.85024    21   %  1.7753
     282     -19.86918     15.58910         -4.28008  -0.84897    22   %  1.8384
     289     -20.15247     15.87361         -4.27887  -0.84776    23   %  1.9014
     295     -20.41650     16.13880         -4.27771  -0.84660    24   %  1.9646
     300     -20.66290     16.38630         -4.27660  -0.84549    25   %  2.0286
     306     -20.89310     16.61756         -4.27554  -0.84443    26   %  2.0992
     311     -21.10838     16.83386         -4.27452  -0.84341    27   %  2.1854
     316     -21.30983     17.03629         -4.27354  -0.84244    28   %  2.2741
     321     -21.49846     17.22586         -4.27260  -0.84150    29   %  2.3643
     326     -21.67516     17.40346         -4.27170  -0.84059    30   %  2.4555
     330     -21.84076     17.56993         -4.27083  -0.83972    31   %  2.5473
     334     -21.99604     17.72605         -4.26998  -0.83888    32   %  2.6392
     339     -22.14177     17.87261         -4.26916  -0.83806    33   %  2.7312
     343     -22.27859     18.01022         -4.26837  -0.83726    34   %  2.8230
     347     -22.40713     18.13954         -4.26759  -0.83648    35   %  2.9145
     351     -22.52795     18.26112         -4.26683  -0.83572    36   %  3.0059
     355     -22.64156     18.37548         -4.26607  -0.83497    37   %  3.0971
     358     -22.74836     18.48303         -4.26533  -0.83423    38   %  3.1881
     362     -22.84893     18.58433         -4.26460  -0.83349    39   %  3.2791
     366     -22.94356     18.67968         -4.26387  -0.83277    40   %  3.3701
     370     -23.03259     18.76944         -4.26316  -0.83205    41   %  3.4611
     373     -23.11631     18.85386         -4.26244  -0.83134    42   %  3.5522
     377     -23.19505     18.93332         -4.26173  -0.83063    43   %  3.6435
     383     -23.27004     19.00975         -4.26029  -0.82918    44   %  3.7363
     387     -23.33851     19.07890         -4.25961  -0.82851    45   %  3.8270
     394     -23.40537     19.14748         -4.25788  -0.82678    46   %  3.9213
     398     -23.46057     19.20360         -4.25697  -0.82586    47   %  4.0049
     406     -23.52369     19.26880         -4.25489  -0.82379    48   %  4.1067
     410     -23.57657     19.32292         -4.25365  -0.82254    49   %  4.1993
     419     -23.62823     19.37745         -4.25079  -0.81968    50   %  4.2951
     422     -23.67315     19.42328         -4.24987  -0.81876    51   %  4.3862
     432     -23.71982     19.47448         -4.24534  -0.81423    52   %  4.4852
     442     -23.76013     19.52199         -4.23814  -0.80704    53   %  4.5781
     447     -23.79773     19.55917         -4.23857  -0.80746    54   %  4.6718
     458     -23.83429     19.60589         -4.22840  -0.79729    55   %  4.7669
     469     -23.86732     19.64987         -4.21745  -0.78635    56   %  4.8595
     480     -23.89832     19.69486         -4.20346  -0.77236    57   %  4.9520
     486     -23.92417     19.71950         -4.20467  -0.77357    58   %  5.0393
     500     -23.95242     19.76557         -4.18684  -0.75574    59   %  5.1279
     513     -23.97908     19.80757         -4.17151  -0.74041    60   %  5.2220
     526     -24.00145     19.84646         -4.15500  -0.72389    61   %  5.3051
     540     -24.02596     19.88523         -4.14074  -0.70963    62   %  5.3992
     555     -24.04729     19.92447         -4.12281  -0.69171    63   %  5.4896
     557     -24.05971     19.93824         -4.12147  -0.69036    64   %  5.5478
     584     -24.08371     20.02397         -4.05974  -0.62863    65   %  5.6521
     601     -24.10191     20.06522         -4.03669  -0.60559    66   %  5.7394
     617     -24.11940     20.10485         -4.01455  -0.58344    67   %  5.8261
     632     -24.13354     20.14634         -3.98720  -0.55610    68   %  5.9027
     654     -24.14980     20.20908         -3.94072  -0.50961    69   %  5.9924
     674     -24.16475     20.25165         -3.91311  -0.48200    70   %  6.0792
     691     -24.17152     20.28502         -3.88650  -0.45539    71   %  6.1634
     717     -24.19103     20.34788         -3.84315  -0.41204    72   %  6.2434
     733     -24.20135     20.38440         -3.81695  -0.38584    73   %  6.3220
     762     -24.21455     20.43940         -3.77515  -0.34404    74   %  6.4037
     792     -24.22801     20.50009         -3.72793  -0.29682    75   %  6.5014
     821     -24.23930     20.55946         -3.67984  -0.24874    76   %  6.5864
     851     -24.25061     20.62050         -3.63011  -0.19901    77   %  6.6751
     882     -24.26060     20.67434         -3.58627  -0.15516    78   %  6.7575
     920     -24.27116     20.73942         -3.53174  -0.10063    79   %  6.8469
     956     -24.28175     20.80006         -3.48168  -0.05058    80   %  6.9364
     987     -24.28603     20.86242         -3.42361   0.00749    81   %  7.0179
    1031     -24.30027     20.94580         -3.35447   0.07663    82   %  7.1094
    1076     -24.30902     21.01590         -3.29312   0.13799    83   %  7.1922
    1121     -24.31790     21.09815         -3.21976   0.21135    84   %  7.2781
    1168     -24.32640     21.16139         -3.16501   0.26609    85   %  7.3623
    1215     -24.33514     21.28398         -3.05116   0.37994    86   %  7.4469
    1262     -24.34264     21.35050         -2.99214   0.43897    87   %  7.5260
    1320     -24.35153     21.48739         -2.86414   0.56697    88   %  7.6138
    1368     -24.35943     21.57117         -2.78826   0.64285    89   %  7.6949
    1418     -24.36544     21.67493         -2.69052   0.74059    90   %  7.7646
    1477     -24.37370     21.76831         -2.60539   0.82571    91   %  7.8377
    1537     -24.38111     21.86664         -2.51447   0.91663    92   %  7.9121
    1597     -24.38871     21.94969         -2.43902   0.99209    93   %  7.9874
    1656     -24.39523     22.04827         -2.34697   1.08414    94   %  8.0515
    1715     -24.40226     22.15704         -2.24522   1.18588    95   %  8.1205
    1775     -24.40926     22.25742         -2.15184   1.27927    96   %  8.1886
    1836     -24.41617     22.34732         -2.06885   1.36226    97   %  8.2554
    1888     -24.42300     22.49293         -1.93006   1.50105    98   %  8.3209
    1939     -24.42920     22.59831         -1.83088   1.60022    99   %  8.3812
    2007     -24.43637     22.72427         -1.71210   1.71901   100   %  8.4488
    2068     -24.44302     22.82465         -1.61837   1.81274   101   %  8.5122
    2129     -24.44958     22.92635         -1.52323   1.90787   102   %  8.5747
    2182     -24.45563     23.03024         -1.42539   2.00572   103   %  8.6328
    2240     -24.46175     23.13485         -1.32691   2.10420   104   %  8.6912
    2311     -24.46884     23.26507         -1.20377   2.22734   105   %  8.7589
    2372     -24.47611     23.35849         -1.11762   2.31348   106   %  8.8207
    2431     -24.48093     23.45424         -1.02669   2.40441   107   %  8.8762
    2503     -24.48750     23.57215         -0.91535   2.51575   108   %  8.9404
    2565     -24.49346     23.66692         -0.82654   2.60457   109   %  8.9994
    2612     -24.49687     23.76460         -0.73227   2.69884   110   %  9.0568
    2680     -24.50468     23.90464         -0.60004   2.83106   111   %  9.1121
    2739     -24.50920     23.99889         -0.51031   2.92080   112   %  9.1700
    2813     -24.51664     24.10342         -0.41323   3.01788   113   %  9.2338
    2875     -24.52181     24.22033         -0.30148   3.12963   114   %  9.2958
    2947     -24.52819     24.32905         -0.19913   3.23197   115   %  9.3572
    2996     -24.53275     24.41570         -0.11706   3.31405   116   %  9.4107
    3071     -24.53564     24.54479          0.00915   3.44026   117   %  9.4813
    3142     -24.54551     24.65760          0.11209   3.54320   118   %  9.5425
    3207     -24.55000     24.75944          0.20943   3.64054   119   %  9.6047
    3280     -24.55623     24.90701          0.35078   3.78189   120   %  9.6713
    3345     -24.56164     25.03824          0.47660   3.90771   121   %  9.7352
    3417     -24.56712     25.16239          0.59527   4.02638   122   %  9.8014
    3491     -24.57254     25.29293          0.72039   4.15150   123   %  9.8681
    3559     -24.57259     25.41338          0.84079   4.27189   124   %  9.9342
    3642     -24.58302     25.54301          0.95998   4.39109   125   % 10.0014
    3720     -24.58825     25.65894          1.07069   4.50180   126   % 10.0701
    3794     -24.58854     25.78329          1.19475   4.62586   127   % 10.1393
    3868     -24.59740     25.89945          1.30205   4.73315   128   % 10.2014
    3957     -24.60085     26.03050          1.42965   4.86076   129   % 10.2764
    4042     -24.60793     26.16931          1.56138   4.99248   130   % 10.3445
    4119     -24.61121     26.31684          1.70563   5.13673   131   % 10.4166
    4197     -24.61703     26.46892          1.85190   5.28300   132   % 10.4814
    4294     -24.62211     26.65822          2.03612   5.46722   133   % 10.5598
    4385     -24.62657     26.78958          2.16302   5.59412   134   % 10.6324
    4482     -24.63107     26.95996          2.32889   5.75999   135   % 10.7057
    4576     -24.63530     27.10504          2.46975   5.90085   136   % 10.7780


 IRC CALCULATION COMPLETE 

 **********************
 *                    *
 * JOB ENDED NORMALLY *
 *                    *
 **********************



 TOTAL JOB TIME:           163.80 SECONDS

 == MOPAC DONE ==
