 *******************************************************************************
 ** Site#: 37037        For non-commercial use only           Version 21.158W **
 *******************************************************************************
 ** Cite this program as: MOPAC2016, Version: 21.158W, James J. P. Stewart,   **
 ** Stewart Computational Chemistry, web: HTTP://OpenMOPAC.net. Days left: 361**
 *******************************************************************************
 **                                                                           **
 **                                MOPAC2016                                  **
 **                                                                           **
 *******************************************************************************

                              PM7 CALCULATION RESULTS

 *******************************************************************************
 *  CALCULATION DONE:                                Fri Jun 11 09:24:03 2021  *
 *  GEO_DAT    - DATA SET GEOMETRY IS IN FILE "Butyl radical plus butane.arc"
 *  GEO_REF    - REFERENCE GEOMETRY IS IN FILE "Butane plus butyl radical.arc"
 *               (NO BIAS TOWARDS THE REFERENCE GEOMETRY WILL BE APPLIED)
 *  SADDLE     - TRANSITION STATE TO BE OPTIMIZED
 *  T=         - A TIME OF 172800.0 SECONDS REQUESTED
 *  DUMP=N     - RESTART FILE WRITTEN EVERY 7200.0 SECONDS REQUESTED
 *  HTML       - WRITE HTML SCRIPT TO READ PDB FILE USING JSMOL
 *******************************************************************************
geo_dat="Butyl radical plus butane.arc" +
geo_ref="Butane plus butyl radical.arc" +
saddle html
 SADDLE calculation of the narcissistic reaction: Butane + butyl radical <=> butyl radical + butane

   ATOM                 CHEMICAL                   X               Y               Z
  NUMBER                 SYMBOL               (ANGSTROMS)     (ANGSTROMS)     (ANGSTROMS)
 
     1       C(HETATM    1  C1  HET A   1)    0.00000000  *   0.00000000  *   0.00000000  *
     2       C(HETATM    2  C2  HET A   1)    1.52884000  *   0.00000000  *   0.00000000  *
     3       C(HETATM    3  C3  HET A   1)    2.08176340  *   1.43216384  *   0.00000000  *
     4       C(HETATM    4  C4  HET A   1)    3.60980093  *   1.42507129  *   0.03053221  *
     5       C(HETATM    5  C1  HET B   2)    4.04047532  *   2.67211673  *   5.39707446  *
     6       C(HETATM    6  C2  HET B   2)    4.75836918  *   1.96335953  *   4.24865653  *
     7       C(HETATM    7  C3  HET B   2)    5.72941860  *   2.91764485  *   3.53546048  *
     8       C(HETATM    8  C4  HET B   2)    6.40421958  *   2.29167983  *   2.39596734  *
     9       H(HETATM    9 1H1  HET A   1)   -0.40074824  *   0.48765203  *   0.89542421  *
    10       H(HETATM   10 2H1  HET A   1)   -0.40126139  *   0.52872330  *  -0.87158214  *
    11       H(HETATM   11 3H1  HET A   1)   -0.39608183  *  -1.02112553  *  -0.02420542  *
    12       H(HETATM   12 1H2  HET A   1)    1.90721226  *  -0.54991495  *   0.88223508  *
    13       H(HETATM   13 2H2  HET A   1)    1.90694623  *  -0.54858946  *  -0.88320641  *
    14       H(HETATM   14 1H3  HET A   1)    1.72262736  *   1.97514707  *  -0.89422900  *
    15       H(HETATM   15 2H3  HET A   1)    1.68797508  *   1.99007037  *   0.87000406  *
    16       H(HETATM   16 1H4  HET A   1)    3.98989187  *   0.94006880  *   0.93691536  *
    17       H(HETATM   17 2H4  HET A   1)    4.02576442  *   0.89003809  *  -0.83003099  *
    18       H(HETATM   18 3H4  HET B   2)    4.01401082  *   2.44334680  *   0.01280824  *
    19       H(HETATM   19 1H1  HET B   2)    4.75124527  *   3.09370772  *   6.11602163  *
    20       H(HETATM   20 2H1  HET B   2)    3.41299412  *   3.49294552  *   5.03213328  *
    21       H(HETATM   21 3H1  HET B   2)    3.39125404  *   1.98092401  *   5.94594938  *
    22       H(HETATM   22 1H2  HET B   2)    5.31053168  *   1.08345037  *   4.62997027  *
    23       H(HETATM   23 2H2  HET B   2)    4.01920099  *   1.56887881  *   3.52553992  *
    24       H(HETATM   24 1H3  HET B   2)    5.18229332  *   3.82824760  *   3.19843064  *
    25       H(HETATM   25 2H3  HET B   2)    6.48260063  *   3.29848129  *   4.26266298  *
    26       H(HETATM   26 1H4  HET B   2)    6.19248648  *   1.29257134  *   2.09754152  *
    27       H(HETATM   27 2H4  HET B   2)    7.13370857  *   2.82792171  *   1.83482021  *
 

                        After docking

                     Atoms that move a lot

                     Atom Label             GEO_REF Coordinates       Movement    Integral

            (HETATM   26 1H4  HET B   2)   5.437   1.753   1.854        2.17         2.17
            (HETATM   17 2H4  HET A   1)   4.053   2.415  -0.136        2.00         4.17
            (HETATM   18 3H4  HET B   2)   6.658   1.142   2.976        0.72         4.89
            (HETATM   16 1H4  HET A   1)   4.128   0.595  -0.163        0.47         5.37
            (HETATM    4  C4  HET A   1)   3.541   1.481  -0.106        0.39         5.76
            (HETATM   14 1H3  HET A   1)   1.621   2.013  -0.834        0.30         6.06
            (HETATM    8  C4  HET B   2)   6.174   2.053   2.609        0.29         6.35
            (HETATM   27 2H4  HET B   2)   6.938   2.653   2.104        0.26         6.61
            (HETATM   10 2H1  HET A   1)  -0.401   0.460  -0.910        0.21         6.82
            (HETATM   25 2H3  HET B   2)   6.285   3.180   4.463        0.18         7.01
            (HETATM   11 3H1  HET A   1)  -0.397  -1.020   0.053        0.16         7.17
            (HETATM    7  C3  HET B   2)   5.516   2.834   3.747        0.16         7.32
            (HETATM   13 2H2  HET A   1)   1.906  -0.548  -0.884        0.16         7.48
            (HETATM   24 1H3  HET B   2)   5.037   3.749   3.352        0.15         7.63
            (HETATM   23 2H2  HET B   2)   3.717   1.609   3.753        0.15         7.79
            (HETATM    3  C3  HET A   1)   2.080   1.434   0.000        0.14         7.93
            (HETATM   12 1H2  HET A   1)   1.909  -0.548   0.882        0.12         8.05
            (HETATM   22 1H2  HET B   2)   4.961   1.061   4.880        0.12         8.17
            (HETATM    1  C1  HET A   1)   0.000   0.000   0.000        0.11         8.28

     Residues that move a lot and their (Movement in Angstroms, per atom)


   Difference between GEO_DAT and GEO_REF: 8.870 = total,  0.3285 = Average,  0.6133 = RMS, in Angstroms

 General Reference for PM7:
 "Optimization of Parameters for Semiempirical Methods VI: More Modifications to the 
 NDDO Approximations and Re-optimization of Parameters", J. J. P. Stewart, J. Mol. Mod., 1:32, 19 (2013)
 https://link.springer.com/article/10.1007/s00894-012-1667-x

           Empirical Formula: C8 H19  =    27 atoms



      MOLECULAR POINT GROUP   :   C1  


          UHF CALCULATION, NO. OF ALPHA ELECTRONS =   26
                           NO. OF BETA  ELECTRONS =   25


  CARTESIAN GEOMETRY OF FIRST SYSTEM


   1    C          0.00000       0.00000       0.00000
   2    C          1.52847       0.00000       0.00000
   3    C          2.08040       1.43439       0.00000
   4    C          3.54097       1.48085      -0.10552
   5    C          3.80230       2.75109       5.59978
   6    C          4.47676       1.96865       4.47292
   7    C          5.51649       2.83361       3.74691
   8    C          6.17367       2.05300       2.60878
   9    H         -0.40280       0.55340       0.85529
  10    H         -0.40105       0.45999      -0.90980
  11    H         -0.39680      -1.02024       0.05280
  12    H          1.90938      -0.54847       0.88205
  13    H          1.90553      -0.54814      -0.88401
  14    H          1.62144       2.01321      -0.83423
  15    H          1.74887       1.96438       0.92246
  16    H          4.12795       0.59523      -0.16323
  17    H          4.05270       2.41494      -0.13574
  18    H          6.65849       1.14176       2.97583
  19    H          4.53434       3.11459       6.32892
  20    H          3.26081       3.62198       5.21418
  21    H          3.08176       2.12731       6.14015
  22    H          4.96069       1.06087       4.87963
  23    H          3.71721       1.60886       3.75328
  24    H          5.03680       3.74857       3.35193
  25    H          6.28493       3.18021       4.46310
  26    H          5.43680       1.75313       1.85354
  27    H          6.93846       2.65325       2.10445


  CARTESIAN GEOMETRY OF SECOND SYSTEM


   1    C          0.06189       0.08569      -0.03785
   2    C          1.58552       0.03048       0.07551
   3    C          2.19048       1.44139       0.08863
   4    C          3.71081       1.37980       0.23252
   5    C          3.79317       2.72927       5.59093
   6    C          4.56620       1.96974       4.51292
   7    C          5.62221       2.87227       3.85524
   8    C          6.35476       2.19721       2.78133
   9    H         -0.38484       0.60725       0.81573
  10    H         -0.25414       0.60909      -0.94691
  11    H         -0.36951      -0.92075      -0.07148
  12    H          1.87716      -0.51302       0.99391
  13    H          2.00649      -0.55087      -0.76638
  14    H          1.91863       1.97701      -0.84016
  15    H          1.75520       2.03232       0.91602
  16    H          4.16836       0.81113      -0.58426
  17    H          4.00483       0.90162       1.17386
  18    H          6.12803       1.20003       2.48753
  19    H          4.46464       3.14077       6.35225
  20    H          3.22551       3.56392       5.16455
  21    H          3.07986       2.07432       6.10350
  22    H          5.05537       1.07914       4.95118
  23    H          3.86776       1.58626       3.74480
  24    H          5.13596       3.79433       3.46091
  25    H          6.33380       3.24170       4.62874
  26    H          4.15328       2.38217       0.22500
  27    H          7.14313       2.69418       2.26548


   "DISTANCE":     3.186922


  REACTION COORDINATE VECTOR


   1    C         -0.06189      -0.08569       0.03785
   2    C         -0.05705      -0.03048      -0.07551
   3    C         -0.11008      -0.00700      -0.08863
   4    C         -0.16984       0.10105      -0.33803
   5    C          0.00913       0.02183       0.00885
   6    C         -0.08944      -0.00109      -0.03999
   7    C         -0.10572      -0.03866      -0.10833
   8    C         -0.18109      -0.14421      -0.17254
   9    H         -0.01796      -0.05384       0.03956
  10    H         -0.14691      -0.14910       0.03712
  11    H         -0.02729      -0.09949       0.12428
  12    H          0.03222      -0.03544      -0.11186
  13    H         -0.10096       0.00273      -0.11763
  14    H         -0.29720       0.03620       0.00593
  15    H         -0.00633      -0.06794       0.00644
  16    H         -0.04040      -0.21590       0.42103
  17    H          0.04786       1.51331      -1.30959
  18    H          0.53047      -0.05826       0.48830
  19    H          0.06970      -0.02618      -0.02333
  20    H          0.03530       0.05806       0.04963
  21    H          0.00190       0.05299       0.03665
  22    H         -0.09468      -0.01827      -0.07155
  23    H         -0.15055       0.02261       0.00848
  24    H         -0.09916      -0.04576      -0.10899
  25    H         -0.04887      -0.06149      -0.16564
  26    H          1.28352      -0.62904       1.62855
  27    H         -0.20467      -0.04093      -0.16104
 *+*+*+*+*+*+*+*+*+*+*+*+*+*+*+*+*+*+*+*+*+*+*+*+*+*+*+*+*+*+*+*+*+*+*+*+*+*+*+*+
            BAR SHORTENED BY       0.000 PERCENT
 GRADIENT CRITERION IN FLEPO =     1.000


          FOR POINT    1 SECOND STRUCTURE
 DISTANCE A - B      3.186922
 HEAT              -23.581779
 GRADIENT NORM       0.679877
 DIRECTION COSINE   -0.000000
 html
 SADDLE calculation of the narcissistic reaction: Butane + butyl radical <=> butyl radical + butane

  C(HETATM    1  C1  HET A   1)   0.00000000 +0    0.0000000 +0    0.0000000 +0
  C(HETATM    2  C2  HET A   1)   1.52846800 +1    0.0000000 +0    0.0000000 +0     1     0     0
  C(HETATM    3  C3  HET A   1)   1.53691400 +1  111.0460210 +1    0.0000000 +0     2     1     0
  C(HETATM    4  C4  HET A   1)   1.46510900 +1  112.8052440 +1 -175.5190420 +1     3     2     1
  C(HETATM    5  C1  HET B   2)   5.85083000 +1   88.9217760 +1 -104.1913460 +1     4     3     2
  C(HETATM    6  C2  HET B   2)   1.52870300 +1   35.8832630 +1  141.9435470 +1     5     4     3
  C(HETATM    7  C3  HET B   2)   1.53502600 +1  111.0427310 +1   88.1468950 +1     6     5     4
  C(HETATM    8  C4  HET B   2)   1.52858700 +1  110.8300540 +1 -179.2002750 +1     7     6     5
  H(HETATM    9 1H1  HET A   1)   1.09545300 +1  111.5737810 +1  -57.0955530 +1     1     2     3
  H(HETATM   10 2H1  HET A   1)   1.09552100 +1  111.4743870 +1   63.1790130 +1     1     2     3
  H(HETATM   11 3H1  HET A   1)   1.09596200 +1  111.2268140 +1 -177.0371820 +1     1     2     3
  H(HETATM   12 1H2  HET A   1)   1.10631100 +1  110.1394950 +1  121.8737290 +1     2     1     3
  H(HETATM   13 2H2  HET A   1)   1.10640000 +1  109.9259280 +1 -121.8014630 +1     2     1     3
  H(HETATM   14 1H3  HET A   1)   1.11428200 +1  109.6873090 +1  -52.6696660 +1     3     2     1
  H(HETATM   15 2H3  HET A   1)   1.11433000 +1  109.6968480 +1   61.5534070 +1     3     2     1
  H(HETATM   16 1H4  HET A   1)   1.06405300 +1  121.8336370 +1   -0.6412510 +1     4     3     2
  H(HETATM   17 2H4  HET A   1)   1.06550300 +1  120.5722320 +1  178.8119600 +1     4     3     2
  H(HETATM   18 3H4  HET B   2)   1.09550700 +1  111.4430350 +1  -58.2782930 +1     8     7     6
  H(HETATM   19 1H1  HET B   2)   1.09529200 +1  138.6816920 +1 -166.9175860 +1     5     4     3
  H(HETATM   20 2H1  HET B   2)   1.09559600 +1   78.8899780 +1  -62.9753530 +1     5     4     3
  H(HETATM   21 3H1  HET B   2)   1.09556900 +1  109.1462140 +1   41.8973310 +1     5     4     3
  H(HETATM   22 1H2  HET B   2)   1.10619000 +1  110.0004100 +1 -150.0034970 +1     6     5     4
  H(HETATM   23 2H2  HET B   2)   1.10645600 +1  110.0597400 +1  -33.7887230 +1     6     5     4
  H(HETATM   24 1H3  HET B   2)   1.10601400 +1  109.9551830 +1  -57.2898850 +1     7     6     5
  H(HETATM   25 2H3  HET B   2)   1.10614500 +1  109.9306230 +1   58.8747930 +1     7     6     5
  H(HETATM   26 1H4  HET B   2)   1.09694900 +1  111.3107420 +1   61.7117370 +1     8     7     6
  H(HETATM   27 2H4  HET B   2)   1.09524300 +1  111.2963660 +1 -178.2998340 +1     8     7     6
 
 TIME=     0.03
  REACTANTS AND PRODUCTS SWAPPED AROUND
 *+*+*+*+*+*+*+*+*+*+*+*+*+*+*+*+*+*+*+*+*+*+*+*+*+*+*+*+*+*+*+*+*+*+*+*+*+*+*+*+
            BAR SHORTENED BY       1.000 PERCENT
 GRADIENT CRITERION IN FLEPO =     1.000
           THERE HAVE BEEN 3 ATTEMPTS TO REDUCE THE GRADIENT.
           DURING THESE ATTEMPTS THE ENERGY DROPPED BY LESS THAN 0.3 KCAL/MOLE
           FURTHER CALCULATION IS NOT JUSTIFIED AT THIS TIME.
           TO CONTINUE, START AGAIN WITH THE WORD "PRECISE"


          FOR POINT    2 FIRST  STRUCTURE
 DISTANCE A - B      3.155053
 HEAT              -23.528284
 GRADIENT NORM       6.060611
 DIRECTION COSINE    0.007912
 html
 SADDLE calculation of the narcissistic reaction: Butane + butyl radical <=> butyl radical + butane

  C(HETATM    1  C1  HET A   1)   0.00000000 +0    0.0000000 +0    0.0000000 +0
  C(HETATM    2  C2  HET A   1)   1.52876401 +1    0.0000000 +0    0.0000000 +0     1     0     0
  C(HETATM    3  C3  HET A   1)   1.53753394 +1  111.2270543 +1    0.0000000 +0     2     1     0
  C(HETATM    4  C4  HET A   1)   1.52842728 +1  110.9071172 +1  178.6775893 +1     3     2     1
  C(HETATM    5  C1  HET B   2)   5.52612324 +1   95.5395901 +1 -102.6052245 +1     4     3     2
  C(HETATM    6  C2  HET B   2)   1.52827176 +1   37.0040370 +1  152.4913861 +1     5     4     3
  C(HETATM    7  C3  HET B   2)   1.53670938 +1  110.8843394 +1   92.2576367 +1     6     5     4
  C(HETATM    8  C4  HET B   2)   1.46458451 +1  112.8480153 +1 -178.2097942 +1     7     6     5
  H(HETATM    9 1H1  HET A   1)   1.09535800 +1  111.4650638 +1  -61.3124310 +1     1     2     3
  H(HETATM   10 2H1  HET A   1)   1.09541300 +1  111.5117692 +1   58.9086345 +1     1     2     3
  H(HETATM   11 3H1  HET A   1)   1.09549824 +1  111.2416188 +1  178.7990327 +1     1     2     3
  H(HETATM   12 1H2  HET A   1)   1.10610584 +1  109.9807492 +1  122.0440005 +1     2     1     3
  H(HETATM   13 2H2  HET A   1)   1.10655256 +1  109.9203989 +1 -121.8696873 +1     2     1     3
  H(HETATM   14 1H3  HET A   1)   1.10466092 +1  109.7642955 +1  -59.0414878 +1     3     2     1
  H(HETATM   15 2H3  HET A   1)   1.10743280 +1  109.7735921 +1   56.8453868 +1     3     2     1
  H(HETATM   16 1H4  HET A   1)   1.09360481 +1  111.2401109 +1   58.4852634 +1     4     3     2
  H(HETATM   17 2H4  HET A   1)   1.09260274 +1  111.5920698 +1  -61.5349042 +1     4     3     2
  H(HETATM   18 3H4  HET B   2)   1.06273534 +1  121.8018013 +1    1.4023143 +1     8     7     6
  H(HETATM   19 1H1  HET B   2)   1.09582729 +1  140.6848268 +1 -158.6903820 +1     5     4     3
  H(HETATM   20 2H1  HET B   2)   1.09580231 +1   78.5923123 +1  -54.9017029 +1     5     4     3
  H(HETATM   21 3H1  HET B   2)   1.09600273 +1  107.4050564 +1   50.0278158 +1     5     4     3
  H(HETATM   22 1H2  HET B   2)   1.10609082 +1  110.1103496 +1 -145.9805933 +1     6     5     4
  H(HETATM   23 2H2  HET B   2)   1.10659269 +1  110.0369671 +1  -29.5639283 +1     6     5     4
  H(HETATM   24 1H3  HET B   2)   1.11375116 +1  109.6951349 +1  -55.2254581 +1     7     6     5
  H(HETATM   25 2H3  HET B   2)   1.11510143 +1  109.6339090 +1   59.0315097 +1     7     6     5
  H(HETATM   26 1H4  HET B   2)   1.09358912 +1  112.4284732 +1 -179.8108238 +1     4     3     2
  H(HETATM   27 2H4  HET B   2)   1.06521075 +1  120.8184192 +1 -177.8209523 +1     8     7     6
 
 TIME=     0.11
  REACTANTS AND PRODUCTS SWAPPED AROUND
 *+*+*+*+*+*+*+*+*+*+*+*+*+*+*+*+*+*+*+*+*+*+*+*+*+*+*+*+*+*+*+*+*+*+*+*+*+*+*+*+
            BAR SHORTENED BY       1.000 PERCENT
 GRADIENT CRITERION IN FLEPO =     3.061


          FOR POINT    3 SECOND STRUCTURE
 DISTANCE A - B      3.123502
 HEAT              -23.589270
 GRADIENT NORM       6.250958
 DIRECTION COSINE    0.163395
 html
 SADDLE calculation of the narcissistic reaction: Butane + butyl radical <=> butyl radical + butane

  C(HETATM    1  C1  HET A   1)   0.00000000 +0    0.0000000 +0    0.0000000 +0
  C(HETATM    2  C2  HET A   1)   1.52833169 +1    0.0000000 +0    0.0000000 +0     1     0     0
  C(HETATM    3  C3  HET A   1)   1.53690694 +1  111.0224655 +1    0.0000000 +0     2     1     0
  C(HETATM    4  C4  HET A   1)   1.46727148 +1  112.5424465 +1 -175.7545276 +1     3     2     1
  C(HETATM    5  C1  HET B   2)   5.84679035 +1   89.0954720 +1 -104.1955971 +1     4     3     2
  C(HETATM    6  C2  HET B   2)   1.52872269 +1   35.8731344 +1  142.3200187 +1     5     4     3
  C(HETATM    7  C3  HET B   2)   1.53656339 +1  110.9841436 +1   88.2977057 +1     6     5     4
  C(HETATM    8  C4  HET B   2)   1.52841502 +1  110.9482010 +1 -178.9729612 +1     7     6     5
  H(HETATM    9 1H1  HET A   1)   1.09546511 +1  111.5839255 +1  -57.1527308 +1     1     2     3
  H(HETATM   10 2H1  HET A   1)   1.09549533 +1  111.4835325 +1   63.1466868 +1     1     2     3
  H(HETATM   11 3H1  HET A   1)   1.09623483 +1  111.2236042 +1 -177.0716429 +1     1     2     3
  H(HETATM   12 1H2  HET A   1)   1.10651426 +1  110.1319850 +1  121.8416804 +1     2     1     3
  H(HETATM   13 2H2  HET A   1)   1.10664020 +1  109.9311298 +1 -121.8431299 +1     2     1     3
  H(HETATM   14 1H3  HET A   1)   1.11427546 +1  109.7203179 +1  -52.8766569 +1     3     2     1
  H(HETATM   15 2H3  HET A   1)   1.11377573 +1  109.7436136 +1   61.4766170 +1     3     2     1
  H(HETATM   16 1H4  HET A   1)   1.06100333 +1  121.8649081 +1    0.4945367 +1     4     3     2
  H(HETATM   17 2H4  HET A   1)   1.06665372 +1  120.7305115 +1 -179.3810486 +1     4     3     2
  H(HETATM   18 3H4  HET B   2)   1.09772090 +1  111.4136258 +1  -57.7579355 +1     8     7     6
  H(HETATM   19 1H1  HET B   2)   1.09406721 +1  138.7183517 +1 -166.6565992 +1     5     4     3
  H(HETATM   20 2H1  HET B   2)   1.09572050 +1   78.9524623 +1  -62.6738452 +1     5     4     3
  H(HETATM   21 3H1  HET B   2)   1.09601111 +1  109.0874588 +1   42.2402431 +1     5     4     3
  H(HETATM   22 1H2  HET B   2)   1.10565885 +1  110.0325119 +1 -149.9969715 +1     6     5     4
  H(HETATM   23 2H2  HET B   2)   1.10815289 +1  110.0721580 +1  -33.6205875 +1     6     5     4
  H(HETATM   24 1H3  HET B   2)   1.10751685 +1  109.8567939 +1  -57.2787881 +1     7     6     5
  H(HETATM   25 2H3  HET B   2)   1.10296691 +1  109.9471954 +1   58.7794499 +1     7     6     5
  H(HETATM   26 1H4  HET B   2)   1.09701536 +1  111.2399565 +1   62.3408905 +1     8     7     6
  H(HETATM   27 2H4  HET B   2)   1.09458409 +1  111.0367908 +1 -177.6915971 +1     8     7     6
 
 *+*+*+*+*+*+*+*+*+*+*+*+*+*+*+*+*+*+*+*+*+*+*+*+*+*+*+*+*+*+*+*+*+*+*+*+*+*+*+*+
            BAR SHORTENED BY       1.000 PERCENT
 GRADIENT CRITERION IN FLEPO =     3.251


          FOR POINT    4 SECOND STRUCTURE
 DISTANCE A - B      3.092267
 HEAT              -23.569910
 GRADIENT NORM       6.016804
 DIRECTION COSINE   -0.110681
 html
 SADDLE calculation of the narcissistic reaction: Butane + butyl radical <=> butyl radical + butane

  C(HETATM    1  C1  HET A   1)   0.00000000 +0    0.0000000 +0    0.0000000 +0
  C(HETATM    2  C2  HET A   1)   1.52910858 +1    0.0000000 +0    0.0000000 +0     1     0     0
  C(HETATM    3  C3  HET A   1)   1.53599778 +1  111.2093961 +1    0.0000000 +0     2     1     0
  C(HETATM    4  C4  HET A   1)   1.46379141 +1  112.7505189 +1 -176.0027608 +1     3     2     1
  C(HETATM    5  C1  HET B   2)   5.83757195 +1   89.3454282 +1 -104.1790596 +1     4     3     2
  C(HETATM    6  C2  HET B   2)   1.52739927 +1   35.9071629 +1  142.5181009 +1     5     4     3
  C(HETATM    7  C3  HET B   2)   1.53458458 +1  110.9611564 +1   88.3498615 +1     6     5     4
  C(HETATM    8  C4  HET B   2)   1.52907803 +1  111.0102710 +1 -178.8671543 +1     7     6     5
  H(HETATM    9 1H1  HET A   1)   1.09564206 +1  111.6383112 +1  -57.2413774 +1     1     2     3
  H(HETATM   10 2H1  HET A   1)   1.09560037 +1  111.5911403 +1   63.1626887 +1     1     2     3
  H(HETATM   11 3H1  HET A   1)   1.09615623 +1  111.2288894 +1 -177.0826032 +1     1     2     3
  H(HETATM   12 1H2  HET A   1)   1.10526271 +1  110.0364699 +1  121.8811052 +1     2     1     3
  H(HETATM   13 2H2  HET A   1)   1.10660806 +1  109.7831569 +1 -121.8609186 +1     2     1     3
  H(HETATM   14 1H3  HET A   1)   1.11332593 +1  109.4490986 +1  -52.8040677 +1     3     2     1
  H(HETATM   15 2H3  HET A   1)   1.11706718 +1  109.6847375 +1   61.0054974 +1     3     2     1
  H(HETATM   16 1H4  HET A   1)   1.06635523 +1  121.5884759 +1    1.5931244 +1     4     3     2
  H(HETATM   17 2H4  HET A   1)   1.06333194 +1  120.8005674 +1 -177.3027111 +1     4     3     2
  H(HETATM   18 3H4  HET B   2)   1.09657814 +1  111.5604671 +1  -57.1713774 +1     8     7     6
  H(HETATM   19 1H1  HET B   2)   1.09535251 +1  138.7637133 +1 -166.5944343 +1     5     4     3
  H(HETATM   20 2H1  HET B   2)   1.09563348 +1   79.0680646 +1  -62.6026466 +1     5     4     3
  H(HETATM   21 3H1  HET B   2)   1.09614358 +1  109.1386753 +1   42.3345497 +1     5     4     3
  H(HETATM   22 1H2  HET B   2)   1.10471522 +1  110.0897048 +1 -149.8062673 +1     6     5     4
  H(HETATM   23 2H2  HET B   2)   1.10883427 +1  110.0220429 +1  -33.4836910 +1     6     5     4
  H(HETATM   24 1H3  HET B   2)   1.10578574 +1  110.0370236 +1  -57.1348887 +1     7     6     5
  H(HETATM   25 2H3  HET B   2)   1.10482344 +1  109.6360636 +1   59.3499017 +1     7     6     5
  H(HETATM   26 1H4  HET B   2)   1.09752800 +1  111.0904838 +1   63.0671950 +1     8     7     6
  H(HETATM   27 2H4  HET B   2)   1.09591512 +1  111.1171221 +1 -177.1436259 +1     8     7     6
 
 TIME=     0.12
  REACTANTS AND PRODUCTS SWAPPED AROUND
 *+*+*+*+*+*+*+*+*+*+*+*+*+*+*+*+*+*+*+*+*+*+*+*+*+*+*+*+*+*+*+*+*+*+*+*+*+*+*+*+
            BAR SHORTENED BY       1.000 PERCENT
 GRADIENT CRITERION IN FLEPO =     3.017


          FOR POINT    5 FIRST  STRUCTURE
 DISTANCE A - B      3.061345
 HEAT              -23.339011
 GRADIENT NORM      11.929189
 DIRECTION COSINE    0.127493
 html
 SADDLE calculation of the narcissistic reaction: Butane + butyl radical <=> butyl radical + butane

  C(HETATM    1  C1  HET A   1)   0.00000000 +0    0.0000000 +0    0.0000000 +0
  C(HETATM    2  C2  HET A   1)   1.52892856 +1    0.0000000 +0    0.0000000 +0     1     0     0
  C(HETATM    3  C3  HET A   1)   1.53757360 +1  111.2228134 +1    0.0000000 +0     2     1     0
  C(HETATM    4  C4  HET A   1)   1.52761905 +1  111.0587343 +1  178.7176512 +1     3     2     1
  C(HETATM    5  C1  HET B   2)   5.52793954 +1   95.5182278 +1 -102.5761555 +1     4     3     2
  C(HETATM    6  C2  HET B   2)   1.52828322 +1   37.0093959 +1  152.2086866 +1     5     4     3
  C(HETATM    7  C3  HET B   2)   1.53654031 +1  110.8732184 +1   92.1599124 +1     6     5     4
  C(HETATM    8  C4  HET B   2)   1.46383910 +1  112.9549678 +1 -178.1741140 +1     7     6     5
  H(HETATM    9 1H1  HET A   1)   1.09536584 +1  111.4711624 +1  -61.2549764 +1     1     2     3
  H(HETATM   10 2H1  HET A   1)   1.09539213 +1  111.5097856 +1   58.9673927 +1     1     2     3
  H(HETATM   11 3H1  HET A   1)   1.09553197 +1  111.2414717 +1  178.8532986 +1     1     2     3
  H(HETATM   12 1H2  HET A   1)   1.10607654 +1  109.9648921 +1  122.0283609 +1     2     1     3
  H(HETATM   13 2H2  HET A   1)   1.10640316 +1  109.9087428 +1 -121.8917758 +1     2     1     3
  H(HETATM   14 1H3  HET A   1)   1.10489969 +1  109.7424106 +1  -59.0057776 +1     3     2     1
  H(HETATM   15 2H3  HET A   1)   1.10699791 +1  109.7839456 +1   56.8691518 +1     3     2     1
  H(HETATM   16 1H4  HET A   1)   1.09433102 +1  111.5229382 +1   57.8700487 +1     4     3     2
  H(HETATM   17 2H4  HET A   1)   1.08691751 +1  111.8445338 +1  -61.8637410 +1     4     3     2
  H(HETATM   18 3H4  HET B   2)   1.06209869 +1  121.8628056 +1    0.5738333 +1     8     7     6
  H(HETATM   19 1H1  HET B   2)   1.09579470 +1  140.6515485 +1 -158.8630865 +1     5     4     3
  H(HETATM   20 2H1  HET B   2)   1.09577544 +1   78.5642094 +1  -55.1142639 +1     5     4     3
  H(HETATM   21 3H1  HET B   2)   1.09591746 +1  107.4514444 +1   49.8054589 +1     5     4     3
  H(HETATM   22 1H2  HET B   2)   1.10611491 +1  110.1067179 +1 -146.0799132 +1     6     5     4
  H(HETATM   23 2H2  HET B   2)   1.10651555 +1  110.0383640 +1  -29.6595030 +1     6     5     4
  H(HETATM   24 1H3  HET B   2)   1.11364160 +1  109.7139928 +1  -55.2542010 +1     7     6     5
  H(HETATM   25 2H3  HET B   2)   1.11497063 +1  109.6435738 +1   59.0459821 +1     7     6     5
  H(HETATM   26 1H4  HET B   2)   1.09565667 +1  113.6509666 +1 -178.6949452 +1     4     3     2
  H(HETATM   27 2H4  HET B   2)   1.06093383 +1  120.8246082 +1 -178.1314240 +1     8     7     6
 
 TIME=     0.05
  REACTANTS AND PRODUCTS SWAPPED AROUND
 *+*+*+*+*+*+*+*+*+*+*+*+*+*+*+*+*+*+*+*+*+*+*+*+*+*+*+*+*+*+*+*+*+*+*+*+*+*+*+*+
            BAR SHORTENED BY       1.000 PERCENT
 GRADIENT CRITERION IN FLEPO =     8.929


          FOR POINT    6 SECOND STRUCTURE
 DISTANCE A - B      3.030731
 HEAT              -23.509931
 GRADIENT NORM      12.032748
 DIRECTION COSINE    0.422042
 html
 SADDLE calculation of the narcissistic reaction: Butane + butyl radical <=> butyl radical + butane

  C(HETATM    1  C1  HET A   1)   0.00000000 +0    0.0000000 +0    0.0000000 +0
  C(HETATM    2  C2  HET A   1)   1.52730964 +1    0.0000000 +0    0.0000000 +0     1     0     0
  C(HETATM    3  C3  HET A   1)   1.53943200 +1  111.1158714 +1    0.0000000 +0     2     1     0
  C(HETATM    4  C4  HET A   1)   1.46707389 +1  112.6199386 +1 -176.2568370 +1     3     2     1
  C(HETATM    5  C1  HET B   2)   5.82865880 +1   89.4925086 +1 -104.3185602 +1     4     3     2
  C(HETATM    6  C2  HET B   2)   1.52914572 +1   35.9588834 +1  142.9121819 +1     5     4     3
  C(HETATM    7  C3  HET B   2)   1.53400392 +1  111.0861131 +1   88.5196841 +1     6     5     4
  C(HETATM    8  C4  HET B   2)   1.52795825 +1  111.1025104 +1 -178.6663396 +1     7     6     5
  H(HETATM    9 1H1  HET A   1)   1.09522779 +1  111.6965725 +1  -57.0515740 +1     1     2     3
  H(HETATM   10 2H1  HET A   1)   1.09580714 +1  111.5117429 +1   63.3417571 +1     1     2     3
  H(HETATM   11 3H1  HET A   1)   1.09557366 +1  111.1502187 +1 -176.9638874 +1     1     2     3
  H(HETATM   12 1H2  HET A   1)   1.10772636 +1  110.1010246 +1  121.5139854 +1     2     1     3
  H(HETATM   13 2H2  HET A   1)   1.10542830 +1  110.0211639 +1 -122.0483100 +1     2     1     3
  H(HETATM   14 1H3  HET A   1)   1.11452755 +1  109.3590951 +1  -53.4593032 +1     3     2     1
  H(HETATM   15 2H3  HET A   1)   1.11136760 +1  109.8261041 +1   60.6941138 +1     3     2     1
  H(HETATM   16 1H4  HET A   1)   1.06369985 +1  121.6672484 +1    2.6580301 +1     4     3     2
  H(HETATM   17 2H4  HET A   1)   1.05413103 +1  121.1221670 +1 -176.4914893 +1     4     3     2
  H(HETATM   18 3H4  HET B   2)   1.09492194 +1  111.7113380 +1  -56.4818957 +1     8     7     6
  H(HETATM   19 1H1  HET B   2)   1.09442326 +1  138.6286039 +1 -166.5384816 +1     5     4     3
  H(HETATM   20 2H1  HET B   2)   1.09497224 +1   78.8757539 +1  -62.4275409 +1     5     4     3
  H(HETATM   21 3H1  HET B   2)   1.09396996 +1  108.9402354 +1   42.5750176 +1     5     4     3
  H(HETATM   22 1H2  HET B   2)   1.10997845 +1  110.1418927 +1 -149.3459110 +1     6     5     4
  H(HETATM   23 2H2  HET B   2)   1.10676324 +1  110.1207541 +1  -33.3415439 +1     6     5     4
  H(HETATM   24 1H3  HET B   2)   1.10726827 +1  109.8401809 +1  -57.0856858 +1     7     6     5
  H(HETATM   25 2H3  HET B   2)   1.10452972 +1  109.7359290 +1   59.3212173 +1     7     6     5
  H(HETATM   26 1H4  HET B   2)   1.10012832 +1  111.4162714 +1   63.9786205 +1     8     7     6
  H(HETATM   27 2H4  HET B   2)   1.09462685 +1  111.0534122 +1 -176.5271857 +1     8     7     6
 
 *+*+*+*+*+*+*+*+*+*+*+*+*+*+*+*+*+*+*+*+*+*+*+*+*+*+*+*+*+*+*+*+*+*+*+*+*+*+*+*+
            BAR SHORTENED BY       1.000 PERCENT
 GRADIENT CRITERION IN FLEPO =     9.033


          FOR POINT    7 SECOND STRUCTURE
 DISTANCE A - B      3.000424
 HEAT              -23.406803
 GRADIENT NORM      14.915240
 DIRECTION COSINE    0.162904
 html
 SADDLE calculation of the narcissistic reaction: Butane + butyl radical <=> butyl radical + butane

  C(HETATM    1  C1  HET A   1)   0.00000000 +0    0.0000000 +0    0.0000000 +0
  C(HETATM    2  C2  HET A   1)   1.52676624 +1    0.0000000 +0    0.0000000 +0     1     0     0
  C(HETATM    3  C3  HET A   1)   1.53920645 +1  111.3007569 +1    0.0000000 +0     2     1     0
  C(HETATM    4  C4  HET A   1)   1.46389089 +1  112.7581941 +1 -176.7002982 +1     3     2     1
  C(HETATM    5  C1  HET B   2)   5.82321169 +1   89.8956661 +1 -104.3974406 +1     4     3     2
  C(HETATM    6  C2  HET B   2)   1.53091533 +1   35.7773509 +1  143.3502216 +1     5     4     3
  C(HETATM    7  C3  HET B   2)   1.53493410 +1  110.9793271 +1   89.3083441 +1     6     5     4
  C(HETATM    8  C4  HET B   2)   1.53287353 +1  110.9791341 +1 -178.3474065 +1     7     6     5
  H(HETATM    9 1H1  HET A   1)   1.09567246 +1  111.8058618 +1  -56.8971070 +1     1     2     3
  H(HETATM   10 2H1  HET A   1)   1.09689232 +1  111.4799189 +1   63.4496353 +1     1     2     3
  H(HETATM   11 3H1  HET A   1)   1.09798723 +1  111.2781625 +1 -176.8909976 +1     1     2     3
  H(HETATM   12 1H2  HET A   1)   1.11007817 +1  109.9068046 +1  121.3749440 +1     2     1     3
  H(HETATM   13 2H2  HET A   1)   1.10254887 +1  110.0608754 +1 -122.3849766 +1     2     1     3
  H(HETATM   14 1H3  HET A   1)   1.11816886 +1  109.3347716 +1  -54.0315406 +1     3     2     1
  H(HETATM   15 2H3  HET A   1)   1.11113465 +1  109.7904929 +1   60.0698739 +1     3     2     1
  H(HETATM   16 1H4  HET A   1)   1.06982429 +1  121.3087536 +1    4.4090007 +1     4     3     2
  H(HETATM   17 2H4  HET A   1)   1.06648119 +1  121.5705463 +1 -174.8751728 +1     4     3     2
  H(HETATM   18 3H4  HET B   2)   1.09847655 +1  111.5275472 +1  -55.9966609 +1     8     7     6
  H(HETATM   19 1H1  HET B   2)   1.09418874 +1  139.1769576 +1 -166.3233958 +1     5     4     3
  H(HETATM   20 2H1  HET B   2)   1.09560646 +1   78.6775410 +1  -62.1262942 +1     5     4     3
  H(HETATM   21 3H1  HET B   2)   1.08531907 +1  107.7331216 +1   42.4870991 +1     5     4     3
  H(HETATM   22 1H2  HET B   2)   1.10663777 +1  109.5782733 +1 -149.5259114 +1     6     5     4
  H(HETATM   23 2H2  HET B   2)   1.11078992 +1  110.2874623 +1  -33.3281855 +1     6     5     4
  H(HETATM   24 1H3  HET B   2)   1.10767521 +1  109.6336982 +1  -57.3696730 +1     7     6     5
  H(HETATM   25 2H3  HET B   2)   1.10853499 +1  110.2554601 +1   58.8184671 +1     7     6     5
  H(HETATM   26 1H4  HET B   2)   1.09824693 +1  111.1482338 +1   64.0983449 +1     8     7     6
  H(HETATM   27 2H4  HET B   2)   1.09437127 +1  110.5807185 +1 -175.8307655 +1     8     7     6
 
 *+*+*+*+*+*+*+*+*+*+*+*+*+*+*+*+*+*+*+*+*+*+*+*+*+*+*+*+*+*+*+*+*+*+*+*+*+*+*+*+
            BAR SHORTENED BY       1.000 PERCENT
 GRADIENT CRITERION IN FLEPO =    10.000


          FOR POINT    8 SECOND STRUCTURE
 DISTANCE A - B      2.970420
 HEAT              -23.363496
 GRADIENT NORM      17.327965
 DIRECTION COSINE    0.163153
 html
 SADDLE calculation of the narcissistic reaction: Butane + butyl radical <=> butyl radical + butane

  C(HETATM    1  C1  HET A   1)   0.00000000 +0    0.0000000 +0    0.0000000 +0
  C(HETATM    2  C2  HET A   1)   1.52936229 +1    0.0000000 +0    0.0000000 +0     1     0     0
  C(HETATM    3  C3  HET A   1)   1.53126102 +1  111.4285424 +1    0.0000000 +0     2     1     0
  C(HETATM    4  C4  HET A   1)   1.46354310 +1  112.5482339 +1 -176.5946429 +1     3     2     1
  C(HETATM    5  C1  HET B   2)   5.82167955 +1   89.9245366 +1 -104.3448116 +1     4     3     2
  C(HETATM    6  C2  HET B   2)   1.52996192 +1   35.7963211 +1  143.8949700 +1     5     4     3
  C(HETATM    7  C3  HET B   2)   1.53535777 +1  110.9823729 +1   89.4130185 +1     6     5     4
  C(HETATM    8  C4  HET B   2)   1.53091432 +1  111.0477681 +1 -178.2745207 +1     7     6     5
  H(HETATM    9 1H1  HET A   1)   1.09535778 +1  111.6402684 +1  -57.1791385 +1     1     2     3
  H(HETATM   10 2H1  HET A   1)   1.09618692 +1  111.4921184 +1   63.1031521 +1     1     2     3
  H(HETATM   11 3H1  HET A   1)   1.09584204 +1  111.2279723 +1 -177.1698144 +1     1     2     3
  H(HETATM   12 1H2  HET A   1)   1.10663998 +1  110.0833448 +1  121.8063420 +1     2     1     3
  H(HETATM   13 2H2  HET A   1)   1.10563653 +1  109.8174165 +1 -121.9639905 +1     2     1     3
  H(HETATM   14 1H3  HET A   1)   1.12013012 +1  109.8779251 +1  -53.8353166 +1     3     2     1
  H(HETATM   15 2H3  HET A   1)   1.11578618 +1  109.9332280 +1   60.0874376 +1     3     2     1
  H(HETATM   16 1H4  HET A   1)   1.05398656 +1  122.1221161 +1    5.4549376 +1     4     3     2
  H(HETATM   17 2H4  HET A   1)   1.06886900 +1  121.0644762 +1 -173.8462574 +1     4     3     2
  H(HETATM   18 3H4  HET B   2)   1.09458193 +1  111.7554178 +1  -55.3970181 +1     8     7     6
  H(HETATM   19 1H1  HET B   2)   1.09542027 +1  139.3069798 +1 -166.1761219 +1     5     4     3
  H(HETATM   20 2H1  HET B   2)   1.09500329 +1   78.9082720 +1  -61.7685473 +1     5     4     3
  H(HETATM   21 3H1  HET B   2)   1.09043227 +1  108.0151739 +1   42.9713663 +1     5     4     3
  H(HETATM   22 1H2  HET B   2)   1.10583497 +1  109.6845051 +1 -149.2324838 +1     6     5     4
  H(HETATM   23 2H2  HET B   2)   1.10781425 +1  110.3400386 +1  -32.9818410 +1     6     5     4
  H(HETATM   24 1H3  HET B   2)   1.10670949 +1  109.6964624 +1  -57.0720438 +1     7     6     5
  H(HETATM   25 2H3  HET B   2)   1.10868595 +1  110.0966866 +1   58.9751839 +1     7     6     5
  H(HETATM   26 1H4  HET B   2)   1.11167771 +1  110.8592238 +1   64.8798968 +1     8     7     6
  H(HETATM   27 2H4  HET B   2)   1.09634695 +1  110.7455138 +1 -175.5180890 +1     8     7     6
 
 TIME=     0.16
  REACTANTS AND PRODUCTS SWAPPED AROUND
 *+*+*+*+*+*+*+*+*+*+*+*+*+*+*+*+*+*+*+*+*+*+*+*+*+*+*+*+*+*+*+*+*+*+*+*+*+*+*+*+
            BAR SHORTENED BY       0.000 PERCENT
 GRADIENT CRITERION IN FLEPO =    10.000


          FOR POINT    9 FIRST  STRUCTURE
 DISTANCE A - B      2.970420
 HEAT              -23.339011
 GRADIENT NORM      11.929155
 DIRECTION COSINE    0.332433
 html
 SADDLE calculation of the narcissistic reaction: Butane + butyl radical <=> butyl radical + butane

  C(HETATM    1  C1  HET A   1)   0.00000000 +0    0.0000000 +0    0.0000000 +0
  C(HETATM    2  C2  HET A   1)   1.52892856 +1    0.0000000 +0    0.0000000 +0     1     0     0
  C(HETATM    3  C3  HET A   1)   1.53757360 +1  111.2228134 +1    0.0000000 +0     2     1     0
  C(HETATM    4  C4  HET A   1)   1.52761905 +1  111.0587343 +1  178.7176512 +1     3     2     1
  C(HETATM    5  C1  HET B   2)   5.52793954 +1   95.5182278 +1 -102.5761555 +1     4     3     2
  C(HETATM    6  C2  HET B   2)   1.52828322 +1   37.0093959 +1  152.2086866 +1     5     4     3
  C(HETATM    7  C3  HET B   2)   1.53654031 +1  110.8732184 +1   92.1599124 +1     6     5     4
  C(HETATM    8  C4  HET B   2)   1.46383910 +1  112.9549678 +1 -178.1741140 +1     7     6     5
  H(HETATM    9 1H1  HET A   1)   1.09536584 +1  111.4711624 +1  -61.2549764 +1     1     2     3
  H(HETATM   10 2H1  HET A   1)   1.09539213 +1  111.5097856 +1   58.9673927 +1     1     2     3
  H(HETATM   11 3H1  HET A   1)   1.09553197 +1  111.2414717 +1  178.8532986 +1     1     2     3
  H(HETATM   12 1H2  HET A   1)   1.10607654 +1  109.9648921 +1  122.0283609 +1     2     1     3
  H(HETATM   13 2H2  HET A   1)   1.10640316 +1  109.9087428 +1 -121.8917758 +1     2     1     3
  H(HETATM   14 1H3  HET A   1)   1.10489969 +1  109.7424106 +1  -59.0057776 +1     3     2     1
  H(HETATM   15 2H3  HET A   1)   1.10699791 +1  109.7839456 +1   56.8691518 +1     3     2     1
  H(HETATM   16 1H4  HET A   1)   1.09433102 +1  111.5229382 +1   57.8700487 +1     4     3     2
  H(HETATM   17 2H4  HET A   1)   1.08691751 +1  111.8445338 +1  -61.8637410 +1     4     3     2
  H(HETATM   18 3H4  HET B   2)   1.06209869 +1  121.8628056 +1    0.5738333 +1     8     7     6
  H(HETATM   19 1H1  HET B   2)   1.09579470 +1  140.6515485 +1 -158.8630865 +1     5     4     3
  H(HETATM   20 2H1  HET B   2)   1.09577544 +1   78.5642094 +1  -55.1142639 +1     5     4     3
  H(HETATM   21 3H1  HET B   2)   1.09591746 +1  107.4514444 +1   49.8054589 +1     5     4     3
  H(HETATM   22 1H2  HET B   2)   1.10611491 +1  110.1067179 +1 -146.0799132 +1     6     5     4
  H(HETATM   23 2H2  HET B   2)   1.10651555 +1  110.0383640 +1  -29.6595030 +1     6     5     4
  H(HETATM   24 1H3  HET B   2)   1.11364160 +1  109.7139928 +1  -55.2542010 +1     7     6     5
  H(HETATM   25 2H3  HET B   2)   1.11497063 +1  109.6435738 +1   59.0459821 +1     7     6     5
  H(HETATM   26 1H4  HET B   2)   1.09565667 +1  113.6509666 +1 -178.6949452 +1     4     3     2
  H(HETATM   27 2H4  HET B   2)   1.06093383 +1  120.8246082 +1 -178.1314240 +1     8     7     6
 
 TIME=     0.02
  REACTANTS AND PRODUCTS SWAPPED AROUND
 *+*+*+*+*+*+*+*+*+*+*+*+*+*+*+*+*+*+*+*+*+*+*+*+*+*+*+*+*+*+*+*+*+*+*+*+*+*+*+*+
            BAR SHORTENED BY       1.000 PERCENT
 GRADIENT CRITERION IN FLEPO =     8.929


          FOR POINT   10 SECOND STRUCTURE
 DISTANCE A - B      2.940716
 HEAT              -23.241712
 GRADIENT NORM      21.125430
 DIRECTION COSINE    0.473461
 html
 SADDLE calculation of the narcissistic reaction: Butane + butyl radical <=> butyl radical + butane

  C(HETATM    1  C1  HET A   1)   0.00000000 +0    0.0000000 +0    0.0000000 +0
  C(HETATM    2  C2  HET A   1)   1.52674002 +1    0.0000000 +0    0.0000000 +0     1     0     0
  C(HETATM    3  C3  HET A   1)   1.53745137 +1  111.5469715 +1    0.0000000 +0     2     1     0
  C(HETATM    4  C4  HET A   1)   1.46456141 +1  112.2598595 +1 -176.9076081 +1     3     2     1
  C(HETATM    5  C1  HET B   2)   5.79900088 +1   90.1189329 +1 -104.5135498 +1     4     3     2
  C(HETATM    6  C2  HET B   2)   1.52531713 +1   36.1679088 +1  144.2606325 +1     5     4     3
  C(HETATM    7  C3  HET B   2)   1.53075151 +1  110.7778204 +1   88.9963179 +1     6     5     4
  C(HETATM    8  C4  HET B   2)   1.53033513 +1  111.1916283 +1 -177.9231712 +1     7     6     5
  H(HETATM    9 1H1  HET A   1)   1.09622951 +1  111.7216964 +1  -57.0747959 +1     1     2     3
  H(HETATM   10 2H1  HET A   1)   1.09454142 +1  111.5648656 +1   63.3246280 +1     1     2     3
  H(HETATM   11 3H1  HET A   1)   1.09863171 +1  111.4088758 +1 -176.9133233 +1     1     2     3
  H(HETATM   12 1H2  HET A   1)   1.10598435 +1  110.0284007 +1  121.7170096 +1     2     1     3
  H(HETATM   13 2H2  HET A   1)   1.10515926 +1  109.8717240 +1 -122.4416172 +1     2     1     3
  H(HETATM   14 1H3  HET A   1)   1.11580291 +1  109.5860699 +1  -54.4934996 +1     3     2     1
  H(HETATM   15 2H3  HET A   1)   1.11306605 +1  109.8578308 +1   59.8821955 +1     3     2     1
  H(HETATM   16 1H4  HET A   1)   1.05729892 +1  122.6636133 +1    6.6840601 +1     4     3     2
  H(HETATM   17 2H4  HET A   1)   1.05564235 +1  121.0296425 +1 -173.0806284 +1     4     3     2
  H(HETATM   18 3H4  HET B   2)   1.09869402 +1  111.9478706 +1  -54.1888593 +1     8     7     6
  H(HETATM   19 1H1  HET B   2)   1.10460922 +1  139.6684155 +1 -165.9060217 +1     5     4     3
  H(HETATM   20 2H1  HET B   2)   1.09208032 +1   79.5590329 +1  -61.4303922 +1     5     4     3
  H(HETATM   21 3H1  HET B   2)   1.09869578 +1  108.6642994 +1   43.4965225 +1     5     4     3
  H(HETATM   22 1H2  HET B   2)   1.10326737 +1  109.9219023 +1 -149.1690525 +1     6     5     4
  H(HETATM   23 2H2  HET B   2)   1.10482261 +1  109.8312045 +1  -32.7449738 +1     6     5     4
  H(HETATM   24 1H3  HET B   2)   1.10469545 +1  110.2787617 +1  -56.3138991 +1     7     6     5
  H(HETATM   25 2H3  HET B   2)   1.11094927 +1  110.0744751 +1   59.7454271 +1     7     6     5
  H(HETATM   26 1H4  HET B   2)   1.11586317 +1  110.5529513 +1   65.9978685 +1     8     7     6
  H(HETATM   27 2H4  HET B   2)   1.09505740 +1  110.9148528 +1 -174.5090241 +1     8     7     6
 
 TIME=     0.05
  REACTANTS AND PRODUCTS SWAPPED AROUND
 *+*+*+*+*+*+*+*+*+*+*+*+*+*+*+*+*+*+*+*+*+*+*+*+*+*+*+*+*+*+*+*+*+*+*+*+*+*+*+*+
            BAR SHORTENED BY       1.000 PERCENT
 GRADIENT CRITERION IN FLEPO =    10.000


          FOR POINT   11 FIRST  STRUCTURE
 DISTANCE A - B      2.911308
 HEAT              -22.953441
 GRADIENT NORM      18.955758
 DIRECTION COSINE    0.292616
 html
 SADDLE calculation of the narcissistic reaction: Butane + butyl radical <=> butyl radical + butane

  C(HETATM    1  C1  HET A   1)   0.00000000 +0    0.0000000 +0    0.0000000 +0
  C(HETATM    2  C2  HET A   1)   1.53167259 +1    0.0000000 +0    0.0000000 +0     1     0     0
  C(HETATM    3  C3  HET A   1)   1.53831064 +1  111.2938837 +1    0.0000000 +0     2     1     0
  C(HETATM    4  C4  HET A   1)   1.52953930 +1  111.0258177 +1  178.6699059 +1     3     2     1
  C(HETATM    5  C1  HET B   2)   5.52694157 +1   95.4419678 +1 -102.6753701 +1     4     3     2
  C(HETATM    6  C2  HET B   2)   1.52627663 +1   36.8734621 +1  151.8690026 +1     5     4     3
  C(HETATM    7  C3  HET B   2)   1.53846442 +1  110.6509439 +1   92.0240472 +1     6     5     4
  C(HETATM    8  C4  HET B   2)   1.46644603 +1  112.9272361 +1 -178.5198441 +1     7     6     5
  H(HETATM    9 1H1  HET A   1)   1.09587053 +1  111.5127776 +1  -60.9917904 +1     1     2     3
  H(HETATM   10 2H1  HET A   1)   1.09574610 +1  111.4887892 +1   59.2074291 +1     1     2     3
  H(HETATM   11 3H1  HET A   1)   1.09697002 +1  111.3946632 +1  179.1009432 +1     1     2     3
  H(HETATM   12 1H2  HET A   1)   1.10530931 +1  109.6937126 +1  122.0156998 +1     2     1     3
  H(HETATM   13 2H2  HET A   1)   1.10479116 +1  109.6917492 +1 -122.2292338 +1     2     1     3
  H(HETATM   14 1H3  HET A   1)   1.11047846 +1  109.3251233 +1  -58.9918959 +1     3     2     1
  H(HETATM   15 2H3  HET A   1)   1.11271080 +1  109.2747169 +1   56.0595903 +1     3     2     1
  H(HETATM   16 1H4  HET A   1)   1.09302561 +1  111.3657931 +1   57.3482310 +1     4     3     2
  H(HETATM   17 2H4  HET A   1)   1.08608800 +1  111.8799943 +1  -62.2412608 +1     4     3     2
  H(HETATM   18 3H4  HET B   2)   1.07435173 +1  121.7983937 +1   -0.3638785 +1     8     7     6
  H(HETATM   19 1H1  HET B   2)   1.09565080 +1  140.5330412 +1 -158.9915386 +1     5     4     3
  H(HETATM   20 2H1  HET B   2)   1.09572308 +1   78.5870602 +1  -55.2390548 +1     5     4     3
  H(HETATM   21 3H1  HET B   2)   1.09475200 +1  107.5208690 +1   49.7002491 +1     5     4     3
  H(HETATM   22 1H2  HET B   2)   1.10761234 +1  110.1953129 +1 -146.5465155 +1     6     5     4
  H(HETATM   23 2H2  HET B   2)   1.10499739 +1  110.3026348 +1  -29.8497758 +1     6     5     4
  H(HETATM   24 1H3  HET B   2)   1.11397094 +1  109.7900158 +1  -55.6993001 +1     7     6     5
  H(HETATM   25 2H3  HET B   2)   1.11291103 +1  109.8549787 +1   59.0522123 +1     7     6     5
  H(HETATM   26 1H4  HET B   2)   1.09674816 +1  114.6453745 +1 -177.9197185 +1     4     3     2
  H(HETATM   27 2H4  HET B   2)   1.06489323 +1  120.8095449 +1 -178.3300857 +1     8     7     6
 
 TIME=     0.05
  REACTANTS AND PRODUCTS SWAPPED AROUND
 *+*+*+*+*+*+*+*+*+*+*+*+*+*+*+*+*+*+*+*+*+*+*+*+*+*+*+*+*+*+*+*+*+*+*+*+*+*+*+*+
            BAR SHORTENED BY       1.000 PERCENT
 GRADIENT CRITERION IN FLEPO =    10.000


          FOR POINT   12 SECOND STRUCTURE
 DISTANCE A - B      2.882195
 HEAT              -23.306661
 GRADIENT NORM      13.866993
 DIRECTION COSINE    0.145605
 html
 SADDLE calculation of the narcissistic reaction: Butane + butyl radical <=> butyl radical + butane

  C(HETATM    1  C1  HET A   1)   0.00000000 +0    0.0000000 +0    0.0000000 +0
  C(HETATM    2  C2  HET A   1)   1.52535223 +1    0.0000000 +0    0.0000000 +0     1     0     0
  C(HETATM    3  C3  HET A   1)   1.54069110 +1  111.4087069 +1    0.0000000 +0     2     1     0
  C(HETATM    4  C4  HET A   1)   1.46967110 +1  112.0692955 +1 -177.3357591 +1     3     2     1
  C(HETATM    5  C1  HET B   2)   5.81171842 +1   90.5013623 +1 -104.5171326 +1     4     3     2
  C(HETATM    6  C2  HET B   2)   1.52964180 +1   35.8770537 +1  145.3610719 +1     5     4     3
  C(HETATM    7  C3  HET B   2)   1.53609212 +1  111.3302192 +1   89.9596536 +1     6     5     4
  C(HETATM    8  C4  HET B   2)   1.53211708 +1  111.4601404 +1 -177.4383021 +1     7     6     5
  H(HETATM    9 1H1  HET A   1)   1.09545900 +1  111.8396116 +1  -57.3212071 +1     1     2     3
  H(HETATM   10 2H1  HET A   1)   1.09595516 +1  111.6791981 +1   63.4226308 +1     1     2     3
  H(HETATM   11 3H1  HET A   1)   1.09942562 +1  111.0258741 +1 -177.0011552 +1     1     2     3
  H(HETATM   12 1H2  HET A   1)   1.11107972 +1  110.1288257 +1  121.4171129 +1     2     1     3
  H(HETATM   13 2H2  HET A   1)   1.10585015 +1  110.0938222 +1 -122.0701880 +1     2     1     3
  H(HETATM   14 1H3  HET A   1)   1.11658177 +1  109.6572831 +1  -54.7911395 +1     3     2     1
  H(HETATM   15 2H3  HET A   1)   1.11091974 +1  109.8038710 +1   59.4823072 +1     3     2     1
  H(HETATM   16 1H4  HET A   1)   1.05971929 +1  121.3758163 +1    9.0938744 +1     4     3     2
  H(HETATM   17 2H4  HET A   1)   1.06930924 +1  121.0760502 +1 -169.4117355 +1     4     3     2
  H(HETATM   18 3H4  HET B   2)   1.09167154 +1  111.4760536 +1  -53.6961704 +1     8     7     6
  H(HETATM   19 1H1  HET B   2)   1.09477867 +1  139.3520778 +1 -165.4141836 +1     5     4     3
  H(HETATM   20 2H1  HET B   2)   1.09422922 +1   79.0260475 +1  -61.0644923 +1     5     4     3
  H(HETATM   21 3H1  HET B   2)   1.09700227 +1  108.0094720 +1   43.9039145 +1     5     4     3
  H(HETATM   22 1H2  HET B   2)   1.10811960 +1  110.1204086 +1 -147.8958513 +1     6     5     4
  H(HETATM   23 2H2  HET B   2)   1.10973545 +1  110.1539563 +1  -32.2067128 +1     6     5     4
  H(HETATM   24 1H3  HET B   2)   1.10735464 +1  109.5314709 +1  -56.4899230 +1     7     6     5
  H(HETATM   25 2H3  HET B   2)   1.10704192 +1  109.8048045 +1   59.0912742 +1     7     6     5
  H(HETATM   26 1H4  HET B   2)   1.09418265 +1  111.0588717 +1   66.9867749 +1     8     7     6
  H(HETATM   27 2H4  HET B   2)   1.09570827 +1  110.2957494 +1 -173.4343173 +1     8     7     6
 
 *+*+*+*+*+*+*+*+*+*+*+*+*+*+*+*+*+*+*+*+*+*+*+*+*+*+*+*+*+*+*+*+*+*+*+*+*+*+*+*+
            BAR SHORTENED BY       1.000 PERCENT
 GRADIENT CRITERION IN FLEPO =    10.000


          FOR POINT   13 SECOND STRUCTURE
 DISTANCE A - B      2.853373
 HEAT              -23.251707
 GRADIENT NORM      15.207752
 DIRECTION COSINE    0.153960
 html
 SADDLE calculation of the narcissistic reaction: Butane + butyl radical <=> butyl radical + butane

  C(HETATM    1  C1  HET A   1)   0.00000000 +0    0.0000000 +0    0.0000000 +0
  C(HETATM    2  C2  HET A   1)   1.52932406 +1    0.0000000 +0    0.0000000 +0     1     0     0
  C(HETATM    3  C3  HET A   1)   1.53873609 +1  111.4446080 +1    0.0000000 +0     2     1     0
  C(HETATM    4  C4  HET A   1)   1.46595144 +1  112.0901822 +1 -177.3857744 +1     3     2     1
  C(HETATM    5  C1  HET B   2)   5.80295725 +1   90.6285368 +1 -104.3027932 +1     4     3     2
  C(HETATM    6  C2  HET B   2)   1.53231787 +1   36.0349097 +1  145.7478773 +1     5     4     3
  C(HETATM    7  C3  HET B   2)   1.53506782 +1  111.4644635 +1   90.0883275 +1     6     5     4
  C(HETATM    8  C4  HET B   2)   1.53002039 +1  111.5742355 +1 -177.1767573 +1     7     6     5
  H(HETATM    9 1H1  HET A   1)   1.09491120 +1  111.7358757 +1  -57.5912599 +1     1     2     3
  H(HETATM   10 2H1  HET A   1)   1.09601361 +1  111.8034275 +1   63.1506291 +1     1     2     3
  H(HETATM   11 3H1  HET A   1)   1.09591921 +1  111.1352257 +1 -177.2201339 +1     1     2     3
  H(HETATM   12 1H2  HET A   1)   1.10686252 +1  110.0989889 +1  121.8241748 +1     2     1     3
  H(HETATM   13 2H2  HET A   1)   1.10756055 +1  109.6743251 +1 -121.7418436 +1     2     1     3
  H(HETATM   14 1H3  HET A   1)   1.11355135 +1  109.8830484 +1  -54.9155036 +1     3     2     1
  H(HETATM   15 2H3  HET A   1)   1.11263675 +1  109.6198302 +1   59.4575899 +1     3     2     1
  H(HETATM   16 1H4  HET A   1)   1.05939748 +1  121.6040050 +1   10.2177397 +1     4     3     2
  H(HETATM   17 2H4  HET A   1)   1.05945093 +1  121.2408963 +1 -168.6089973 +1     4     3     2
  H(HETATM   18 3H4  HET B   2)   1.09151353 +1  111.6314357 +1  -53.0955625 +1     8     7     6
  H(HETATM   19 1H1  HET B   2)   1.10132336 +1  139.0761524 +1 -165.5076445 +1     5     4     3
  H(HETATM   20 2H1  HET B   2)   1.09054141 +1   79.1552199 +1  -61.3184664 +1     5     4     3
  H(HETATM   21 3H1  HET B   2)   1.09192456 +1  108.2390772 +1   44.3268923 +1     5     4     3
  H(HETATM   22 1H2  HET B   2)   1.10520183 +1  110.1134951 +1 -147.6960502 +1     6     5     4
  H(HETATM   23 2H2  HET B   2)   1.10688405 +1  110.0156372 +1  -32.0307865 +1     6     5     4
  H(HETATM   24 1H3  HET B   2)   1.10679871 +1  109.6040382 +1  -56.2224214 +1     7     6     5
  H(HETATM   25 2H3  HET B   2)   1.10737933 +1  109.8301435 +1   59.4237027 +1     7     6     5
  H(HETATM   26 1H4  HET B   2)   1.10930388 +1  110.8802194 +1   67.3174899 +1     8     7     6
  H(HETATM   27 2H4  HET B   2)   1.09528902 +1  110.7870460 +1 -173.1478541 +1     8     7     6
 
 *+*+*+*+*+*+*+*+*+*+*+*+*+*+*+*+*+*+*+*+*+*+*+*+*+*+*+*+*+*+*+*+*+*+*+*+*+*+*+*+
            BAR SHORTENED BY       1.000 PERCENT
 GRADIENT CRITERION IN FLEPO =    10.000


          FOR POINT   14 SECOND STRUCTURE
 DISTANCE A - B      2.824840
 HEAT              -23.192879
 GRADIENT NORM      15.084462
 DIRECTION COSINE    0.148786
 html
 SADDLE calculation of the narcissistic reaction: Butane + butyl radical <=> butyl radical + butane

  C(HETATM    1  C1  HET A   1)   0.00000000 +0    0.0000000 +0    0.0000000 +0
  C(HETATM    2  C2  HET A   1)   1.53066283 +1    0.0000000 +0    0.0000000 +0     1     0     0
  C(HETATM    3  C3  HET A   1)   1.53751084 +1  111.5649804 +1    0.0000000 +0     2     1     0
  C(HETATM    4  C4  HET A   1)   1.46566331 +1  111.8823199 +1 -177.8060810 +1     3     2     1
  C(HETATM    5  C1  HET B   2)   5.78796225 +1   91.2190059 +1 -104.2548365 +1     4     3     2
  C(HETATM    6  C2  HET B   2)   1.52469032 +1   36.0645597 +1  145.9756059 +1     5     4     3
  C(HETATM    7  C3  HET B   2)   1.53117729 +1  111.0081920 +1   89.5648525 +1     6     5     4
  C(HETATM    8  C4  HET B   2)   1.52628537 +1  112.0105968 +1 -177.3483186 +1     7     6     5
  H(HETATM    9 1H1  HET A   1)   1.09457609 +1  111.4639573 +1  -57.5511005 +1     1     2     3
  H(HETATM   10 2H1  HET A   1)   1.09423720 +1  111.4969286 +1   62.8491672 +1     1     2     3
  H(HETATM   11 3H1  HET A   1)   1.09726812 +1  111.0346651 +1 -177.3262938 +1     1     2     3
  H(HETATM   12 1H2  HET A   1)   1.10126197 +1  110.0551480 +1  122.0534129 +1     2     1     3
  H(HETATM   13 2H2  HET A   1)   1.10972864 +1  109.6811448 +1 -121.9067920 +1     2     1     3
  H(HETATM   14 1H3  HET A   1)   1.11291264 +1  109.9227189 +1  -55.3854210 +1     3     2     1
  H(HETATM   15 2H3  HET A   1)   1.11413870 +1  109.6703888 +1   59.1627166 +1     3     2     1
  H(HETATM   16 1H4  HET A   1)   1.06663813 +1  121.6556514 +1   13.3964472 +1     4     3     2
  H(HETATM   17 2H4  HET A   1)   1.06639156 +1  121.6215587 +1 -165.5712849 +1     4     3     2
  H(HETATM   18 3H4  HET B   2)   1.09905858 +1  111.7472457 +1  -50.8113046 +1     8     7     6
  H(HETATM   19 1H1  HET B   2)   1.10265927 +1  139.9793414 +1 -164.4748007 +1     5     4     3
  H(HETATM   20 2H1  HET B   2)   1.09656532 +1   79.6375579 +1  -60.5417163 +1     5     4     3
  H(HETATM   21 3H1  HET B   2)   1.09303754 +1  108.3462408 +1   44.1095049 +1     5     4     3
  H(HETATM   22 1H2  HET B   2)   1.10532866 +1  110.4120525 +1 -147.8792176 +1     6     5     4
  H(HETATM   23 2H2  HET B   2)   1.11190024 +1  109.7045596 +1  -31.6877062 +1     6     5     4
  H(HETATM   24 1H3  HET B   2)   1.10966491 +1  110.1863343 +1  -55.1495552 +1     7     6     5
  H(HETATM   25 2H3  HET B   2)   1.10998015 +1  109.5694338 +1   60.1559134 +1     7     6     5
  H(HETATM   26 1H4  HET B   2)   1.09709045 +1  111.5792754 +1   69.5254145 +1     8     7     6
  H(HETATM   27 2H4  HET B   2)   1.09099756 +1  110.6993533 +1 -170.8813248 +1     8     7     6
 
 TIME=     0.17
  REACTANTS AND PRODUCTS SWAPPED AROUND
 *+*+*+*+*+*+*+*+*+*+*+*+*+*+*+*+*+*+*+*+*+*+*+*+*+*+*+*+*+*+*+*+*+*+*+*+*+*+*+*+
            BAR SHORTENED BY       0.000 PERCENT
 GRADIENT CRITERION IN FLEPO =    10.000


          FOR POINT   15 FIRST  STRUCTURE
 DISTANCE A - B      2.824840
 HEAT              -23.055047
 GRADIENT NORM      14.726142
 DIRECTION COSINE    0.005231
 html
 SADDLE calculation of the narcissistic reaction: Butane + butyl radical <=> butyl radical + butane

  C(HETATM    1  C1  HET A   1)   0.00000000 +0    0.0000000 +0    0.0000000 +0
  C(HETATM    2  C2  HET A   1)   1.52880869 +1    0.0000000 +0    0.0000000 +0     1     0     0
  C(HETATM    3  C3  HET A   1)   1.54086875 +1  111.2246874 +1    0.0000000 +0     2     1     0
  C(HETATM    4  C4  HET A   1)   1.53013822 +1  110.9398697 +1  178.6528971 +1     3     2     1
  C(HETATM    5  C1  HET B   2)   5.52684212 +1   95.5535564 +1 -102.5363276 +1     4     3     2
  C(HETATM    6  C2  HET B   2)   1.53008528 +1   36.8764996 +1  152.0598030 +1     5     4     3
  C(HETATM    7  C3  HET B   2)   1.53654263 +1  110.8524429 +1   92.1563370 +1     6     5     4
  C(HETATM    8  C4  HET B   2)   1.46526812 +1  112.9260766 +1 -178.4344801 +1     7     6     5
  H(HETATM    9 1H1  HET A   1)   1.09512189 +1  111.4323988 +1  -61.1679432 +1     1     2     3
  H(HETATM   10 2H1  HET A   1)   1.09468415 +1  111.8857230 +1   59.0313272 +1     1     2     3
  H(HETATM   11 3H1  HET A   1)   1.09434814 +1  111.4219587 +1  179.1748933 +1     1     2     3
  H(HETATM   12 1H2  HET A   1)   1.10810672 +1  110.5905628 +1  122.3248836 +1     2     1     3
  H(HETATM   13 2H2  HET A   1)   1.10663447 +1  109.7283077 +1 -121.7764597 +1     2     1     3
  H(HETATM   14 1H3  HET A   1)   1.10506358 +1  109.4606953 +1  -59.0152339 +1     3     2     1
  H(HETATM   15 2H3  HET A   1)   1.10742220 +1  109.2362730 +1   56.4752398 +1     3     2     1
  H(HETATM   16 1H4  HET A   1)   1.09489120 +1  111.3981373 +1   57.7492502 +1     4     3     2
  H(HETATM   17 2H4  HET A   1)   1.08890350 +1  111.8669629 +1  -62.0135572 +1     4     3     2
  H(HETATM   18 3H4  HET B   2)   1.06611123 +1  121.9183300 +1   -0.9201939 +1     8     7     6
  H(HETATM   19 1H1  HET B   2)   1.09599296 +1  140.4313091 +1 -159.3189507 +1     5     4     3
  H(HETATM   20 2H1  HET B   2)   1.09549642 +1   78.6630462 +1  -55.2158673 +1     5     4     3
  H(HETATM   21 3H1  HET B   2)   1.09654687 +1  107.4638128 +1   49.8307991 +1     5     4     3
  H(HETATM   22 1H2  HET B   2)   1.10547935 +1  110.0832554 +1 -146.1965542 +1     6     5     4
  H(HETATM   23 2H2  HET B   2)   1.10807338 +1  110.1623021 +1  -29.9130158 +1     6     5     4
  H(HETATM   24 1H3  HET B   2)   1.11440068 +1  109.5037455 +1  -55.5144517 +1     7     6     5
  H(HETATM   25 2H3  HET B   2)   1.11392305 +1  109.6373740 +1   58.6780788 +1     7     6     5
  H(HETATM   26 1H4  HET B   2)   1.09663417 +1  114.7130827 +1 -177.9209317 +1     4     3     2
  H(HETATM   27 2H4  HET B   2)   1.06291227 +1  120.6396020 +1 -178.5689957 +1     8     7     6
 
 TIME=     0.05
  REACTANTS AND PRODUCTS SWAPPED AROUND
 *+*+*+*+*+*+*+*+*+*+*+*+*+*+*+*+*+*+*+*+*+*+*+*+*+*+*+*+*+*+*+*+*+*+*+*+*+*+*+*+
            BAR SHORTENED BY       1.000 PERCENT
 GRADIENT CRITERION IN FLEPO =    10.000


          FOR POINT   16 SECOND STRUCTURE
 DISTANCE A - B      2.796591
 HEAT              -23.083869
 GRADIENT NORM      14.997819
 DIRECTION COSINE    0.297728
 html
 SADDLE calculation of the narcissistic reaction: Butane + butyl radical <=> butyl radical + butane

  C(HETATM    1  C1  HET A   1)   0.00000000 +0    0.0000000 +0    0.0000000 +0
  C(HETATM    2  C2  HET A   1)   1.52674695 +1    0.0000000 +0    0.0000000 +0     1     0     0
  C(HETATM    3  C3  HET A   1)   1.53392808 +1  111.6980441 +1    0.0000000 +0     2     1     0
  C(HETATM    4  C4  HET A   1)   1.46282125 +1  111.6965230 +1 -177.6035742 +1     3     2     1
  C(HETATM    5  C1  HET B   2)   5.79312368 +1   91.0914795 +1 -104.6267903 +1     4     3     2
  C(HETATM    6  C2  HET B   2)   1.52979848 +1   35.9527805 +1  146.2840442 +1     5     4     3
  C(HETATM    7  C3  HET B   2)   1.53583627 +1  110.8286038 +1   89.8201728 +1     6     5     4
  C(HETATM    8  C4  HET B   2)   1.52987412 +1  111.7473353 +1 -177.2276031 +1     7     6     5
  H(HETATM    9 1H1  HET A   1)   1.09807235 +1  111.5366492 +1  -57.3122341 +1     1     2     3
  H(HETATM   10 2H1  HET A   1)   1.09583309 +1  111.7291114 +1   62.7052751 +1     1     2     3
  H(HETATM   11 3H1  HET A   1)   1.09439035 +1  111.3909379 +1 -177.2184652 +1     1     2     3
  H(HETATM   12 1H2  HET A   1)   1.10397968 +1  109.9857980 +1  121.7431159 +1     2     1     3
  H(HETATM   13 2H2  HET A   1)   1.10773390 +1  109.5749458 +1 -121.9980948 +1     2     1     3
  H(HETATM   14 1H3  HET A   1)   1.11825233 +1  109.8751714 +1  -55.4706141 +1     3     2     1
  H(HETATM   15 2H3  HET A   1)   1.11456335 +1  110.0348846 +1   58.7832537 +1     3     2     1
  H(HETATM   16 1H4  HET A   1)   1.06148000 +1  121.9976105 +1   14.1342610 +1     4     3     2
  H(HETATM   17 2H4  HET A   1)   1.06927683 +1  121.2253826 +1 -164.4773413 +1     4     3     2
  H(HETATM   18 3H4  HET B   2)   1.09570241 +1  111.7274975 +1  -50.6395304 +1     8     7     6
  H(HETATM   19 1H1  HET B   2)   1.09776498 +1  139.9103569 +1 -164.6471005 +1     5     4     3
  H(HETATM   20 2H1  HET B   2)   1.09933151 +1   79.4047609 +1  -59.8805273 +1     5     4     3
  H(HETATM   21 3H1  HET B   2)   1.09463631 +1  107.8898264 +1   44.5080838 +1     5     4     3
  H(HETATM   22 1H2  HET B   2)   1.10542842 +1  110.3986951 +1 -147.7659732 +1     6     5     4
  H(HETATM   23 2H2  HET B   2)   1.11288310 +1  110.2732429 +1  -32.5289615 +1     6     5     4
  H(HETATM   24 1H3  HET B   2)   1.10825015 +1  109.9111043 +1  -55.5013850 +1     7     6     5
  H(HETATM   25 2H3  HET B   2)   1.10583311 +1  109.4973199 +1   60.1448140 +1     7     6     5
  H(HETATM   26 1H4  HET B   2)   1.10879760 +1  111.3486135 +1   69.8338038 +1     8     7     6
  H(HETATM   27 2H4  HET B   2)   1.09457569 +1  110.3250981 +1 -170.8060401 +1     8     7     6
 
 *+*+*+*+*+*+*+*+*+*+*+*+*+*+*+*+*+*+*+*+*+*+*+*+*+*+*+*+*+*+*+*+*+*+*+*+*+*+*+*+
            BAR SHORTENED BY       1.000 PERCENT
 GRADIENT CRITERION IN FLEPO =    10.000
           THERE HAVE BEEN 3 ATTEMPTS TO REDUCE THE GRADIENT.
           DURING THESE ATTEMPTS THE ENERGY DROPPED BY LESS THAN 0.3 KCAL/MOLE
           FURTHER CALCULATION IS NOT JUSTIFIED AT THIS TIME.
           TO CONTINUE, START AGAIN WITH THE WORD "PRECISE"


          FOR POINT   17 SECOND STRUCTURE
 DISTANCE A - B      2.768625
 HEAT              -22.949607
 GRADIENT NORM      19.875373
 DIRECTION COSINE    0.721803
 html
 SADDLE calculation of the narcissistic reaction: Butane + butyl radical <=> butyl radical + butane

  C(HETATM    1  C1  HET A   1)   0.00000000 +0    0.0000000 +0    0.0000000 +0
  C(HETATM    2  C2  HET A   1)   1.52706347 +1    0.0000000 +0    0.0000000 +0     1     0     0
  C(HETATM    3  C3  HET A   1)   1.53741112 +1  111.4669679 +1    0.0000000 +0     2     1     0
  C(HETATM    4  C4  HET A   1)   1.46090077 +1  111.2937411 +1 -177.9984362 +1     3     2     1
  C(HETATM    5  C1  HET B   2)   5.77936596 +1   91.3570067 +1 -104.6621825 +1     4     3     2
  C(HETATM    6  C2  HET B   2)   1.52874056 +1   36.0221499 +1  146.8626330 +1     5     4     3
  C(HETATM    7  C3  HET B   2)   1.53504458 +1  110.8511452 +1   89.9746308 +1     6     5     4
  C(HETATM    8  C4  HET B   2)   1.53104888 +1  111.9264309 +1 -177.1218272 +1     7     6     5
  H(HETATM    9 1H1  HET A   1)   1.09748916 +1  111.5901249 +1  -57.5498434 +1     1     2     3
  H(HETATM   10 2H1  HET A   1)   1.09415535 +1  111.6746960 +1   63.1241503 +1     1     2     3
  H(HETATM   11 3H1  HET A   1)   1.09646225 +1  110.9849642 +1 -177.3188303 +1     1     2     3
  H(HETATM   12 1H2  HET A   1)   1.10449110 +1  109.9084935 +1  121.6767928 +1     2     1     3
  H(HETATM   13 2H2  HET A   1)   1.10696922 +1  109.6719662 +1 -122.2756297 +1     2     1     3
  H(HETATM   14 1H3  HET A   1)   1.11547662 +1  109.6515908 +1  -55.8957591 +1     3     2     1
  H(HETATM   15 2H3  HET A   1)   1.11300185 +1  109.9814994 +1   58.7684602 +1     3     2     1
  H(HETATM   16 1H4  HET A   1)   1.06304457 +1  122.3807249 +1   15.4686352 +1     4     3     2
  H(HETATM   17 2H4  HET A   1)   1.06118789 +1  121.4540860 +1 -163.6246182 +1     4     3     2
  H(HETATM   18 3H4  HET B   2)   1.09553192 +1  111.6036433 +1  -50.0014466 +1     8     7     6
  H(HETATM   19 1H1  HET B   2)   1.09960703 +1  139.9495302 +1 -164.1703291 +1     5     4     3
  H(HETATM   20 2H1  HET B   2)   1.09723197 +1   79.5782191 +1  -59.6451152 +1     5     4     3
  H(HETATM   21 3H1  HET B   2)   1.09431556 +1  108.1015742 +1   45.0194357 +1     5     4     3
  H(HETATM   22 1H2  HET B   2)   1.10570806 +1  110.2445557 +1 -147.8042151 +1     6     5     4
  H(HETATM   23 2H2  HET B   2)   1.10869639 +1  110.1606280 +1  -32.3013918 +1     6     5     4
  H(HETATM   24 1H3  HET B   2)   1.10712735 +1  109.9681653 +1  -55.2878406 +1     7     6     5
  H(HETATM   25 2H3  HET B   2)   1.10848499 +1  109.5243488 +1   60.1846947 +1     7     6     5
  H(HETATM   26 1H4  HET B   2)   1.12047217 +1  110.9141341 +1   70.2644042 +1     8     7     6
  H(HETATM   27 2H4  HET B   2)   1.09467188 +1  110.5113686 +1 -170.3297454 +1     8     7     6
 
 TIME=     0.12
  REACTANTS AND PRODUCTS SWAPPED AROUND
 *+*+*+*+*+*+*+*+*+*+*+*+*+*+*+*+*+*+*+*+*+*+*+*+*+*+*+*+*+*+*+*+*+*+*+*+*+*+*+*+
            BAR SHORTENED BY       1.000 PERCENT
 GRADIENT CRITERION IN FLEPO =    10.000


          FOR POINT   18 FIRST  STRUCTURE
 DISTANCE A - B      2.740939
 HEAT              -22.765698
 GRADIENT NORM      19.637607
 DIRECTION COSINE    0.621966
 html
 SADDLE calculation of the narcissistic reaction: Butane + butyl radical <=> butyl radical + butane

  C(HETATM    1  C1  HET A   1)   0.00000000 +0    0.0000000 +0    0.0000000 +0
  C(HETATM    2  C2  HET A   1)   1.53187741 +1    0.0000000 +0    0.0000000 +0     1     0     0
  C(HETATM    3  C3  HET A   1)   1.53942603 +1  111.1375742 +1    0.0000000 +0     2     1     0
  C(HETATM    4  C4  HET A   1)   1.53311018 +1  110.9773801 +1  178.2683071 +1     3     2     1
  C(HETATM    5  C1  HET B   2)   5.52729580 +1   95.5833508 +1 -102.6845595 +1     4     3     2
  C(HETATM    6  C2  HET B   2)   1.52773246 +1   36.8052918 +1  151.7091114 +1     5     4     3
  C(HETATM    7  C3  HET B   2)   1.53552872 +1  110.7601048 +1   91.9659071 +1     6     5     4
  C(HETATM    8  C4  HET B   2)   1.46385047 +1  112.9068295 +1 -178.6770616 +1     7     6     5
  H(HETATM    9 1H1  HET A   1)   1.09355078 +1  111.9317726 +1  -60.6225008 +1     1     2     3
  H(HETATM   10 2H1  HET A   1)   1.09742759 +1  111.5255080 +1   59.6010549 +1     1     2     3
  H(HETATM   11 3H1  HET A   1)   1.09488006 +1  111.4482426 +1  179.1798406 +1     1     2     3
  H(HETATM   12 1H2  HET A   1)   1.10953290 +1  110.0346459 +1  121.6036572 +1     2     1     3
  H(HETATM   13 2H2  HET A   1)   1.10196933 +1  109.8988380 +1 -122.3446257 +1     2     1     3
  H(HETATM   14 1H3  HET A   1)   1.10616004 +1  109.5306751 +1  -59.4075287 +1     3     2     1
  H(HETATM   15 2H3  HET A   1)   1.10624317 +1  109.5539305 +1   56.2328793 +1     3     2     1
  H(HETATM   16 1H4  HET A   1)   1.09397937 +1  111.2059889 +1   57.0782608 +1     4     3     2
  H(HETATM   17 2H4  HET A   1)   1.08472161 +1  111.7213056 +1  -62.4470404 +1     4     3     2
  H(HETATM   18 3H4  HET B   2)   1.06567227 +1  122.0264132 +1   -2.1383572 +1     8     7     6
  H(HETATM   19 1H1  HET B   2)   1.09405483 +1  140.5756873 +1 -159.3690549 +1     5     4     3
  H(HETATM   20 2H1  HET B   2)   1.09685805 +1   78.6699772 +1  -55.2022121 +1     5     4     3
  H(HETATM   21 3H1  HET B   2)   1.09671935 +1  107.5435528 +1   49.3558501 +1     5     4     3
  H(HETATM   22 1H2  HET B   2)   1.11245711 +1  110.2047216 +1 -146.1113101 +1     6     5     4
  H(HETATM   23 2H2  HET B   2)   1.10505968 +1  110.0457931 +1  -30.0144728 +1     6     5     4
  H(HETATM   24 1H3  HET B   2)   1.11389159 +1  109.6100436 +1  -55.6047292 +1     7     6     5
  H(HETATM   25 2H3  HET B   2)   1.11448694 +1  109.6389571 +1   58.6793030 +1     7     6     5
  H(HETATM   26 1H4  HET B   2)   1.09473809 +1  115.4479667 +1 -177.1606670 +1     4     3     2
  H(HETATM   27 2H4  HET B   2)   1.06600954 +1  120.4940349 +1 -178.7809593 +1     8     7     6
 
 TIME=     0.05
  REACTANTS AND PRODUCTS SWAPPED AROUND
 *+*+*+*+*+*+*+*+*+*+*+*+*+*+*+*+*+*+*+*+*+*+*+*+*+*+*+*+*+*+*+*+*+*+*+*+*+*+*+*+
            BAR SHORTENED BY       1.000 PERCENT
 GRADIENT CRITERION IN FLEPO =    10.000
           THERE HAVE BEEN 3 ATTEMPTS TO REDUCE THE GRADIENT.
           DURING THESE ATTEMPTS THE ENERGY DROPPED BY LESS THAN 0.3 KCAL/MOLE
           FURTHER CALCULATION IS NOT JUSTIFIED AT THIS TIME.
           TO CONTINUE, START AGAIN WITH THE WORD "PRECISE"


          FOR POINT   19 SECOND STRUCTURE
 DISTANCE A - B      2.713530
 HEAT              -22.752553
 GRADIENT NORM      25.091972
 DIRECTION COSINE    0.607056
 html
 SADDLE calculation of the narcissistic reaction: Butane + butyl radical <=> butyl radical + butane

  C(HETATM    1  C1  HET A   1)   0.00000000 +0    0.0000000 +0    0.0000000 +0
  C(HETATM    2  C2  HET A   1)   1.52797497 +1    0.0000000 +0    0.0000000 +0     1     0     0
  C(HETATM    3  C3  HET A   1)   1.53867008 +1  111.5514705 +1    0.0000000 +0     2     1     0
  C(HETATM    4  C4  HET A   1)   1.46167134 +1  111.4377786 +1 -178.1773215 +1     3     2     1
  C(HETATM    5  C1  HET B   2)   5.77199020 +1   91.5855252 +1 -104.6988160 +1     4     3     2
  C(HETATM    6  C2  HET B   2)   1.52751473 +1   36.0061951 +1  147.2592338 +1     5     4     3
  C(HETATM    7  C3  HET B   2)   1.53639984 +1  110.8846920 +1   90.2972934 +1     6     5     4
  C(HETATM    8  C4  HET B   2)   1.53170083 +1  112.1364170 +1 -176.9369856 +1     7     6     5
  H(HETATM    9 1H1  HET A   1)   1.09608341 +1  111.5260424 +1  -57.6164027 +1     1     2     3
  H(HETATM   10 2H1  HET A   1)   1.09377835 +1  111.6389238 +1   62.9566547 +1     1     2     3
  H(HETATM   11 3H1  HET A   1)   1.09556457 +1  110.9314839 +1 -177.3370512 +1     1     2     3
  H(HETATM   12 1H2  HET A   1)   1.10427706 +1  110.0462500 +1  121.5988870 +1     2     1     3
  H(HETATM   13 2H2  HET A   1)   1.10740832 +1  109.7938944 +1 -122.1150466 +1     2     1     3
  H(HETATM   14 1H3  HET A   1)   1.11680985 +1  109.7076432 +1  -56.1252893 +1     3     2     1
  H(HETATM   15 2H3  HET A   1)   1.11214546 +1  109.9032967 +1   58.2945481 +1     3     2     1
  H(HETATM   16 1H4  HET A   1)   1.06222591 +1  122.2262915 +1   17.8873392 +1     4     3     2
  H(HETATM   17 2H4  HET A   1)   1.05688530 +1  121.5421362 +1 -161.1902527 +1     4     3     2
  H(HETATM   18 3H4  HET B   2)   1.09349594 +1  111.4678933 +1  -49.0667882 +1     8     7     6
  H(HETATM   19 1H1  HET B   2)   1.10059091 +1  139.9825839 +1 -164.0386969 +1     5     4     3
  H(HETATM   20 2H1  HET B   2)   1.09624817 +1   79.7524755 +1  -59.6404209 +1     5     4     3
  H(HETATM   21 3H1  HET B   2)   1.09429352 +1  108.2103205 +1   45.2773561 +1     5     4     3
  H(HETATM   22 1H2  HET B   2)   1.10695174 +1  110.0497698 +1 -147.7757750 +1     6     5     4
  H(HETATM   23 2H2  HET B   2)   1.10579202 +1  110.1053252 +1  -31.9751658 +1     6     5     4
  H(HETATM   24 1H3  HET B   2)   1.10668591 +1  109.8274304 +1  -55.1118356 +1     7     6     5
  H(HETATM   25 2H3  HET B   2)   1.10776853 +1  109.4928036 +1   60.2360603 +1     7     6     5
  H(HETATM   26 1H4  HET B   2)   1.12778923 +1  110.8739896 +1   71.0205682 +1     8     7     6
  H(HETATM   27 2H4  HET B   2)   1.09525644 +1  110.5799828 +1 -169.6195802 +1     8     7     6
 
 TIME=     0.14
  REACTANTS AND PRODUCTS SWAPPED AROUND
 *+*+*+*+*+*+*+*+*+*+*+*+*+*+*+*+*+*+*+*+*+*+*+*+*+*+*+*+*+*+*+*+*+*+*+*+*+*+*+*+
            BAR SHORTENED BY       1.000 PERCENT
 GRADIENT CRITERION IN FLEPO =    10.000


          FOR POINT   20 FIRST  STRUCTURE
 DISTANCE A - B      2.686394
 HEAT              -22.348050
 GRADIENT NORM      22.387321
 DIRECTION COSINE    0.566786
 html
 SADDLE calculation of the narcissistic reaction: Butane + butyl radical <=> butyl radical + butane

  C(HETATM    1  C1  HET A   1)   0.00000000 +0    0.0000000 +0    0.0000000 +0
  C(HETATM    2  C2  HET A   1)   1.53168647 +1    0.0000000 +0    0.0000000 +0     1     0     0
  C(HETATM    3  C3  HET A   1)   1.54108500 +1  111.3983140 +1    0.0000000 +0     2     1     0
  C(HETATM    4  C4  HET A   1)   1.52877191 +1  111.0903814 +1  178.4229478 +1     3     2     1
  C(HETATM    5  C1  HET B   2)   5.52800526 +1   95.5748393 +1 -102.4641760 +1     4     3     2
  C(HETATM    6  C2  HET B   2)   1.52557218 +1   36.9302748 +1  151.6261843 +1     5     4     3
  C(HETATM    7  C3  HET B   2)   1.53702045 +1  110.9424384 +1   91.6763931 +1     6     5     4
  C(HETATM    8  C4  HET B   2)   1.46375702 +1  113.1932068 +1 -178.7167889 +1     7     6     5
  H(HETATM    9 1H1  HET A   1)   1.09606475 +1  111.6674190 +1  -60.9761306 +1     1     2     3
  H(HETATM   10 2H1  HET A   1)   1.09679939 +1  111.6163001 +1   59.3540920 +1     1     2     3
  H(HETATM   11 3H1  HET A   1)   1.09574072 +1  111.5636070 +1  179.0451218 +1     1     2     3
  H(HETATM   12 1H2  HET A   1)   1.10747727 +1  110.0896242 +1  122.2051725 +1     2     1     3
  H(HETATM   13 2H2  HET A   1)   1.10672564 +1  109.5651919 +1 -122.1711639 +1     2     1     3
  H(HETATM   14 1H3  HET A   1)   1.11256234 +1  109.2118770 +1  -59.1960594 +1     3     2     1
  H(HETATM   15 2H3  HET A   1)   1.10575764 +1  109.0877754 +1   56.3937863 +1     3     2     1
  H(HETATM   16 1H4  HET A   1)   1.09443738 +1  111.2295097 +1   56.8868053 +1     4     3     2
  H(HETATM   17 2H4  HET A   1)   1.08240469 +1  111.8200747 +1  -62.5378885 +1     4     3     2
  H(HETATM   18 3H4  HET B   2)   1.06395499 +1  121.5203593 +1   -2.7766987 +1     8     7     6
  H(HETATM   19 1H1  HET B   2)   1.09492813 +1  140.5036473 +1 -159.3281504 +1     5     4     3
  H(HETATM   20 2H1  HET B   2)   1.09746888 +1   78.3426389 +1  -55.4887235 +1     5     4     3
  H(HETATM   21 3H1  HET B   2)   1.09595331 +1  107.5860599 +1   49.3197830 +1     5     4     3
  H(HETATM   22 1H2  HET B   2)   1.10708913 +1  110.4211048 +1 -146.2511269 +1     6     5     4
  H(HETATM   23 2H2  HET B   2)   1.10779917 +1  110.0244261 +1  -29.9578061 +1     6     5     4
  H(HETATM   24 1H3  HET B   2)   1.11321691 +1  109.5827166 +1  -55.2637977 +1     7     6     5
  H(HETATM   25 2H3  HET B   2)   1.11606945 +1  109.3974253 +1   58.7361814 +1     7     6     5
  H(HETATM   26 1H4  HET B   2)   1.09708909 +1  116.3374963 +1 -176.1283672 +1     4     3     2
  H(HETATM   27 2H4  HET B   2)   1.06481517 +1  120.5333255 +1 -178.8525630 +1     8     7     6
 
 TIME=     0.05
  REACTANTS AND PRODUCTS SWAPPED AROUND
 *+*+*+*+*+*+*+*+*+*+*+*+*+*+*+*+*+*+*+*+*+*+*+*+*+*+*+*+*+*+*+*+*+*+*+*+*+*+*+*+
            BAR SHORTENED BY       1.000 PERCENT
 GRADIENT CRITERION IN FLEPO =    10.000
           THERE HAVE BEEN 3 ATTEMPTS TO REDUCE THE GRADIENT.
           DURING THESE ATTEMPTS THE ENERGY DROPPED BY LESS THAN 0.3 KCAL/MOLE
           FURTHER CALCULATION IS NOT JUSTIFIED AT THIS TIME.
           TO CONTINUE, START AGAIN WITH THE WORD "PRECISE"


          FOR POINT   21 SECOND STRUCTURE
 DISTANCE A - B      2.659530
 HEAT              -22.420784
 GRADIENT NORM      31.348694
 DIRECTION COSINE    0.580550
 html
 SADDLE calculation of the narcissistic reaction: Butane + butyl radical <=> butyl radical + butane

  C(HETATM    1  C1  HET A   1)   0.00000000 +0    0.0000000 +0    0.0000000 +0
  C(HETATM    2  C2  HET A   1)   1.52628335 +1    0.0000000 +0    0.0000000 +0     1     0     0
  C(HETATM    3  C3  HET A   1)   1.53787178 +1  111.6421229 +1    0.0000000 +0     2     1     0
  C(HETATM    4  C4  HET A   1)   1.46372377 +1  111.4976452 +1 -178.4102777 +1     3     2     1
  C(HETATM    5  C1  HET B   2)   5.76743522 +1   91.8396506 +1 -104.7651665 +1     4     3     2
  C(HETATM    6  C2  HET B   2)   1.53072305 +1   36.0347670 +1  147.6426547 +1     5     4     3
  C(HETATM    7  C3  HET B   2)   1.53633221 +1  110.9280981 +1   90.4834547 +1     6     5     4
  C(HETATM    8  C4  HET B   2)   1.53278461 +1  112.3419504 +1 -176.7004920 +1     7     6     5
  H(HETATM    9 1H1  HET A   1)   1.09658337 +1  111.5389651 +1  -57.5772410 +1     1     2     3
  H(HETATM   10 2H1  HET A   1)   1.09479920 +1  111.6222537 +1   62.8573869 +1     1     2     3
  H(HETATM   11 3H1  HET A   1)   1.09570090 +1  111.0019755 +1 -177.3241026 +1     1     2     3
  H(HETATM   12 1H2  HET A   1)   1.10611142 +1  110.1001832 +1  121.5026828 +1     2     1     3
  H(HETATM   13 2H2  HET A   1)   1.10782103 +1  109.9144091 +1 -122.1797956 +1     2     1     3
  H(HETATM   14 1H3  HET A   1)   1.11870031 +1  109.7324797 +1  -56.4226730 +1     3     2     1
  H(HETATM   15 2H3  HET A   1)   1.11078088 +1  109.9817043 +1   57.9726109 +1     3     2     1
  H(HETATM   16 1H4  HET A   1)   1.06234684 +1  122.2180837 +1   19.6453811 +1     4     3     2
  H(HETATM   17 2H4  HET A   1)   1.05236617 +1  121.7347899 +1 -158.7770854 +1     4     3     2
  H(HETATM   18 3H4  HET B   2)   1.09241880 +1  111.1817195 +1  -48.1717405 +1     8     7     6
  H(HETATM   19 1H1  HET B   2)   1.09834184 +1  140.0269507 +1 -163.9606776 +1     5     4     3
  H(HETATM   20 2H1  HET B   2)   1.09578053 +1   79.7571588 +1  -59.5049857 +1     5     4     3
  H(HETATM   21 3H1  HET B   2)   1.09502091 +1  108.1102776 +1   45.4965400 +1     5     4     3
  H(HETATM   22 1H2  HET B   2)   1.10599990 +1  109.8540226 +1 -147.5192024 +1     6     5     4
  H(HETATM   23 2H2  HET B   2)   1.10637743 +1  109.9019728 +1  -31.7097835 +1     6     5     4
  H(HETATM   24 1H3  HET B   2)   1.10647692 +1  109.7397318 +1  -54.8023511 +1     7     6     5
  H(HETATM   25 2H3  HET B   2)   1.10856504 +1  109.2890802 +1   60.2239738 +1     7     6     5
  H(HETATM   26 1H4  HET B   2)   1.13685576 +1  110.6763843 +1   71.8586965 +1     8     7     6
  H(HETATM   27 2H4  HET B   2)   1.09698488 +1  110.5980139 +1 -168.7741296 +1     8     7     6
 
 *+*+*+*+*+*+*+*+*+*+*+*+*+*+*+*+*+*+*+*+*+*+*+*+*+*+*+*+*+*+*+*+*+*+*+*+*+*+*+*+
            BAR SHORTENED BY       1.000 PERCENT
 GRADIENT CRITERION IN FLEPO =    10.000
           THERE HAVE BEEN 3 ATTEMPTS TO REDUCE THE GRADIENT.
           DURING THESE ATTEMPTS THE ENERGY DROPPED BY LESS THAN 0.3 KCAL/MOLE
           FURTHER CALCULATION IS NOT JUSTIFIED AT THIS TIME.
           TO CONTINUE, START AGAIN WITH THE WORD "PRECISE"


          FOR POINT   22 SECOND STRUCTURE
 DISTANCE A - B      2.632935
 HEAT              -22.021464
 GRADIENT NORM      37.104027
 DIRECTION COSINE    0.942235
 html
 SADDLE calculation of the narcissistic reaction: Butane + butyl radical <=> butyl radical + butane

  C(HETATM    1  C1  HET A   1)   0.00000000 +0    0.0000000 +0    0.0000000 +0
  C(HETATM    2  C2  HET A   1)   1.52588665 +1    0.0000000 +0    0.0000000 +0     1     0     0
[...]
                                                       Fri Jun 11 09:24:26 2021
                                                       No. of days remaining = 361




          FINAL H.O.F PLUS STRESS =          1.52061 KCAL/MOL =       6.36224 KJ/MOL
          FINAL STRESS            =          0.00000 KCAL/MOL =       0.00000 KJ/MOL
          FINAL HEAT OF FORMATION =          1.52061 KCAL/MOL =       6.36224 KJ/MOL
          TOTAL DISTORTION        =          0.00213 Angstroms
          AVERAGE DISTORTION      =          0.00008 Angstroms per atom (all atoms)
          RMS DISTORTION          =          0.00019 Angstroms per atom (all atoms)


          TOTAL ENERGY            =      -1237.89574 EV
          ELECTRONIC ENERGY       =      -6626.18358 EV  POINT GROUP:     C1  
          CORE-CORE REPULSION     =       5388.28784 EV
          COSMO AREA              =        205.50 SQUARE ANGSTROMS
          COSMO VOLUME            =        201.46 CUBIC ANGSTROMS

          GRADIENT NORM           =         11.93359 = 2.29662 PER ATOM
          IONIZATION POTENTIAL    =          8.359626 EV
          ALPHA SOMO LUMO (EV)    =         -8.360  4.116
          BETA  SOMO LUMO (EV)    =        -10.727  0.118
          NO. OF ALPHA ELECTRONS  =         26
          NO. OF BETA  ELECTRONS  =         25
          MOLECULAR WEIGHT        =        115.2381

          MOLECULAR DIMENSIONS (Angstroms)

            Atom       Atom       Distance
            H    19    H    11     8.87272
            H    27    H    21     5.44648
            H    18    H    10     2.96177


          SCF CALCULATIONS        =       2900
 
          WALL-CLOCK TIME         =         22.922 SECONDS
          COMPUTATION TIME        =  1 MINUTE AND 31.000 SECONDS



       FINAL  POINT  AND  DERIVATIVES

   PARAMETER     ATOM    TYPE            VALUE        GRADIENT
      1          1  C    CARTESIAN X     0.067931     -1.276038  KCAL/ANGSTROM
      2          1  C    CARTESIAN Y     0.115041      0.131363  KCAL/ANGSTROM
      3          1  C    CARTESIAN Z    -0.282721     -0.312346  KCAL/ANGSTROM
      4          2  C    CARTESIAN X     1.567986     -0.774972  KCAL/ANGSTROM
      5          2  C    CARTESIAN Y    -0.088252     -0.568324  KCAL/ANGSTROM
      6          2  C    CARTESIAN Z    -0.067185     -1.409879  KCAL/ANGSTROM
      7          3  C    CARTESIAN X     2.316669     -0.478565  KCAL/ANGSTROM
      8          3  C    CARTESIAN Y     1.243470     -0.264918  KCAL/ANGSTROM
      9          3  C    CARTESIAN Z     0.155038      1.582562  KCAL/ANGSTROM
     10          4  C    CARTESIAN X     3.792651     -2.807959  KCAL/ANGSTROM
     11          4  C    CARTESIAN Y     0.986740     -0.703201  KCAL/ANGSTROM
     12          4  C    CARTESIAN Z     0.347167     -1.090409  KCAL/ANGSTROM
     13          5  C    CARTESIAN X     3.656053     -1.464153  KCAL/ANGSTROM
     14          5  C    CARTESIAN Y     2.530178     -1.410553  KCAL/ANGSTROM
     15          5  C    CARTESIAN Z     5.360171      0.750387  KCAL/ANGSTROM
     16          6  C    CARTESIAN X     4.233547     -0.440754  KCAL/ANGSTROM
     17          6  C    CARTESIAN Y     1.789879     -0.072594  KCAL/ANGSTROM
     18          6  C    CARTESIAN Z     4.154904      1.595402  KCAL/ANGSTROM
     19          7  C    CARTESIAN X     5.126864      1.937540  KCAL/ANGSTROM
     20          7  C    CARTESIAN Y     2.707392     -1.450424  KCAL/ANGSTROM
     21          7  C    CARTESIAN Z     3.303140     -4.230282  KCAL/ANGSTROM
     22          8  C    CARTESIAN X     5.525826     -0.489466  KCAL/ANGSTROM
     23          8  C    CARTESIAN Y     2.062038      0.014272  KCAL/ANGSTROM
     24          8  C    CARTESIAN Z     2.020687      1.580218  KCAL/ANGSTROM
     25          9  H    CARTESIAN X    -0.388472     -0.410461  KCAL/ANGSTROM
     26          9  H    CARTESIAN Y     0.668033     -1.012068  KCAL/ANGSTROM
     27          9  H    CARTESIAN Z     0.544178     -0.630535  KCAL/ANGSTROM
     28         10  H    CARTESIAN X    -0.138546     -1.024853  KCAL/ANGSTROM
     29         10  H    CARTESIAN Y     0.664554     -1.468437  KCAL/ANGSTROM
     30         10  H    CARTESIAN Z    -1.206134     -0.210108  KCAL/ANGSTROM
     31         11  H    CARTESIAN X    -0.450697      0.121078  KCAL/ANGSTROM
     32         11  H    CARTESIAN Y    -0.849594     -1.276207  KCAL/ANGSTROM
     33         11  H    CARTESIAN Z    -0.356172      0.174447  KCAL/ANGSTROM
     34         12  H    CARTESIAN X     1.730594     -0.243079  KCAL/ANGSTROM
     35         12  H    CARTESIAN Y    -0.753271     -0.594030  KCAL/ANGSTROM
     36         12  H    CARTESIAN Z     0.802995     -0.080598  KCAL/ANGSTROM
     37         13  H    CARTESIAN X     1.999639     -0.870480  KCAL/ANGSTROM
     38         13  H    CARTESIAN Y    -0.617949     -0.742292  KCAL/ANGSTROM
     39         13  H    CARTESIAN Z    -0.937547     -0.332742  KCAL/ANGSTROM
     40         14  H    CARTESIAN X     2.140846     -0.757543  KCAL/ANGSTROM
     41         14  H    CARTESIAN Y     1.911155      0.145003  KCAL/ANGSTROM
     42         14  H    CARTESIAN Z    -0.716607     -4.464903  KCAL/ANGSTROM
     43         15  H    CARTESIAN X     1.891455     -0.694771  KCAL/ANGSTROM
     44         15  H    CARTESIAN Y     1.773065     -0.040508  KCAL/ANGSTROM
     45         15  H    CARTESIAN Z     1.024892     -2.492724  KCAL/ANGSTROM
     46         16  H    CARTESIAN X     4.403254      0.396792  KCAL/ANGSTROM
     47         16  H    CARTESIAN Y     1.187901      0.081693  KCAL/ANGSTROM
     48         16  H    CARTESIAN Z    -0.527837     -1.299236  KCAL/ANGSTROM
     49         17  H    CARTESIAN X     4.022490     -0.871029  KCAL/ANGSTROM
     50         17  H    CARTESIAN Y     0.022122      2.116445  KCAL/ANGSTROM
     51         17  H    CARTESIAN Z     0.784889      0.694786  KCAL/ANGSTROM
     52         18  H    CARTESIAN X     5.937499      0.168677  KCAL/ANGSTROM
     53         18  H    CARTESIAN Y     1.068281     -0.389517  KCAL/ANGSTROM
     54         18  H    CARTESIAN Z     2.097950      0.792236  KCAL/ANGSTROM
     55         19  H    CARTESIAN X     4.442467     -0.569686  KCAL/ANGSTROM
     56         19  H    CARTESIAN Y     2.871456     -0.198520  KCAL/ANGSTROM
     57         19  H    CARTESIAN Z     6.041944      0.167606  KCAL/ANGSTROM
     58         20  H    CARTESIAN X     3.082616      0.132133  KCAL/ANGSTROM
     59         20  H    CARTESIAN Y     3.410145     -0.835359  KCAL/ANGSTROM
     60         20  H    CARTESIAN Z     5.048910     -0.657582  KCAL/ANGSTROM
     61         21  H    CARTESIAN X     2.981249      0.689918  KCAL/ANGSTROM
     62         21  H    CARTESIAN Y     1.885403      0.768469  KCAL/ANGSTROM
     63         21  H    CARTESIAN Z     5.929371     -2.396854  KCAL/ANGSTROM
     64         22  H    CARTESIAN X     4.811137      0.256204  KCAL/ANGSTROM
     65         22  H    CARTESIAN Y     0.908017     -0.457630  KCAL/ANGSTROM
     66         22  H    CARTESIAN Z     4.489707      0.108620  KCAL/ANGSTROM
     67         23  H    CARTESIAN X     3.413106      1.815118  KCAL/ANGSTROM
     68         23  H    CARTESIAN Y     1.393062      1.011877  KCAL/ANGSTROM
     69         23  H    CARTESIAN Z     3.528631     -0.853794  KCAL/ANGSTROM
     70         24  H    CARTESIAN X     4.620818      1.531538  KCAL/ANGSTROM
     71         24  H    CARTESIAN Y     3.676699      0.718173  KCAL/ANGSTROM
     72         24  H    CARTESIAN Z     3.126483      0.861099  KCAL/ANGSTROM
     73         25  H    CARTESIAN X     6.044142      2.150216  KCAL/ANGSTROM
     74         25  H    CARTESIAN Y     2.965602      0.598335  KCAL/ANGSTROM
     75         25  H    CARTESIAN Z     3.883905      2.709792  KCAL/ANGSTROM
     76         26  H    CARTESIAN X     4.340200     -0.000376  KCAL/ANGSTROM
     77         26  H    CARTESIAN Y     1.784596      1.242984  KCAL/ANGSTROM
     78         26  H    CARTESIAN Z     1.251950      0.195472  KCAL/ANGSTROM
     79         27  H    CARTESIAN X     6.057465      1.695975  KCAL/ANGSTROM
     80         27  H    CARTESIAN Y     2.686979      0.788526  KCAL/ANGSTROM
     81         27  H    CARTESIAN Z     1.322804      3.577302  KCAL/ANGSTROM




   ATOM                 CHEMICAL                   X               Y               Z
  NUMBER                 SYMBOL               (ANGSTROMS)     (ANGSTROMS)     (ANGSTROMS)
 
     1       C(HETATM    1  C1  HET A   1)    0.06793115  *   0.11504079  *  -0.28272089  *
     2       C(HETATM    2  C2  HET A   1)    1.56798554  *  -0.08825207  *  -0.06718495  *
     3       C(HETATM    3  C3  HET A   1)    2.31666895  *   1.24347028  *   0.15503784  *
     4       C(HETATM    4  C4  HET A   1)    3.79265106  *   0.98674010  *   0.34716698  *
     5       C(HETATM    5  C1  HET B   2)    3.65605349  *   2.53017795  *   5.36017111  *
     6       C(HETATM    6  C2  HET B   2)    4.23354707  *   1.78987903  *   4.15490432  *
     7       C(HETATM    7  C3  HET B   2)    5.12686447  *   2.70739170  *   3.30314021  *
     8       C(HETATM    8  C4  HET B   2)    5.52582552  *   2.06203820  *   2.02068744  *
     9       H(HETATM    9 1H1  HET A   1)   -0.38847198  *   0.66803342  *   0.54417810  *
    10       H(HETATM   10 2H1  HET A   1)   -0.13854608  *   0.66455350  *  -1.20613446  *
    11       H(HETATM   11 3H1  HET A   1)   -0.45069695  *  -0.84959382  *  -0.35617174  *
    12       H(HETATM   12 1H2  HET A   1)    1.73059366  *  -0.75327130  *   0.80299484  *
    13       H(HETATM   13 2H2  HET A   1)    1.99963922  *  -0.61794946  *  -0.93754749  *
    14       H(HETATM   14 1H3  HET A   1)    2.14084602  *   1.91115460  *  -0.71660694  *
    15       H(HETATM   15 2H3  HET A   1)    1.89145515  *   1.77306454  *   1.02489210  *
    16       H(HETATM   16 1H4  HET A   1)    4.40325443  *   1.18790128  *  -0.52783658  *
    17       H(HETATM   17 2H4  HET A   1)    4.02249004  *   0.02212235  *   0.78488869  *
    18       H(HETATM   18 3H4  HET B   2)    5.93749905  *   1.06828148  *   2.09795033  *
    19       H(HETATM   19 1H1  HET B   2)    4.44246700  *   2.87145637  *   6.04194415  *
    20       H(HETATM   20 2H1  HET B   2)    3.08261561  *   3.41014461  *   5.04891048  *
    21       H(HETATM   21 3H1  HET B   2)    2.98124914  *   1.88540307  *   5.92937056  *
    22       H(HETATM   22 1H2  HET B   2)    4.81113742  *   0.90801704  *   4.48970696  *
    23       H(HETATM   23 2H2  HET B   2)    3.41310553  *   1.39306220  *   3.52863135  *
    24       H(HETATM   24 1H3  HET B   2)    4.62081807  *   3.67669916  *   3.12648289  *
    25       H(HETATM   25 2H3  HET B   2)    6.04414233  *   2.96560223  *   3.88390529  *
    26       H(HETATM   26 1H4  HET B   2)    4.34019975  *   1.78459577  *   1.25194982  *
    27       H(HETATM   27 2H4  HET B   2)    6.05746488  *   2.68697894  *   1.32280444  *

                             CARTESIAN COORDINATES

   1    C        0.067931147     0.115040786    -0.282720889
   2    C        1.567985545    -0.088252067    -0.067184954
   3    C        2.316668951     1.243470280     0.155037838
   4    C        3.792651064     0.986740099     0.347166977
   5    C        3.656053492     2.530177954     5.360171115
   6    C        4.233547070     1.789879029     4.154904321
   7    C        5.126864473     2.707391702     3.303140211
   8    C        5.525825525     2.062038204     2.020687444
   9    H       -0.388471978     0.668033424     0.544178104
  10    H       -0.138546077     0.664553505    -1.206134458
  11    H       -0.450696949    -0.849593825    -0.356171736
  12    H        1.730593661    -0.753271303     0.802994841
  13    H        1.999639224    -0.617949465    -0.937547494
  14    H        2.140846023     1.911154604    -0.716606941
  15    H        1.891455154     1.773064541     1.024892104
  16    H        4.403254429     1.187901277    -0.527836576
  17    H        4.022490041     0.022122353     0.784888689
  18    H        5.937499054     1.068281475     2.097950330
  19    H        4.442467004     2.871456369     6.041944147
  20    H        3.082615607     3.410144613     5.048910483
  21    H        2.981249140     1.885403069     5.929370560
  22    H        4.811137418     0.908017041     4.489706956
  23    H        3.413105531     1.393062197     3.528631354
  24    H        4.620818070     3.676699161     3.126482891
  25    H        6.044142329     2.965602234     3.883905292
  26    H        4.340199753     1.784595774     1.251949816
  27    H        6.057464876     2.686978940     1.322804436


           Empirical Formula: C8 H19  =    27 atoms



      MOLECULAR POINT GROUP   :   C1  


          ALPHA EIGENVALUES  
 -28.92797 -28.35592 -25.90553 -24.87152 -21.85805 -20.80693 -19.99264 -19.53358
 -16.29207 -16.03972 -15.00067 -14.79378 -14.64893 -14.38700 -14.16746 -13.64612
 -12.86829 -12.66697 -12.24726 -12.11013 -12.02533 -11.76424 -11.49495 -11.27423
 -11.07488  -8.35963   4.11590   4.20185   4.46958   4.55192   4.86946   4.98326
   5.22030   5.46086   5.55645   5.78730   5.86780   5.88183   5.94181   6.10715
   6.18659   6.20793   6.39118   6.60414   6.65240   6.70910   6.75898   6.81233
   6.93724   7.05985   7.11061


           BETA EIGENVALUES 
 -28.87774 -28.33534 -25.82516 -24.81116 -21.75833 -20.73970 -19.96173 -19.42894
 -16.19916 -15.98462 -14.89923 -14.69741 -14.60152 -14.30186 -13.95300 -13.52523
 -12.76378 -12.54978 -12.15745 -12.00586 -11.90460 -11.69382 -11.39984 -11.18218
 -10.72706   0.11752   4.15959   4.23659   4.49674   4.58756   4.98958   5.07493
   5.38655   5.52741   5.65869   5.83608   5.88613   5.89871   5.97932   6.17243
   6.21368   6.27745   6.45084   6.64575   6.69845   6.76129   6.78660   6.83715
   7.03046   7.06578   7.11850


              NET ATOMIC CHARGES AND DIPOLE CONTRIBUTIONS

  ATOM NO.                 TYPE                        CHARGE      No. of ELECS.   s-Pop       p-Pop       
    1          C(HETATM    1  C1  HET A   1)          -0.442394        4.4424     1.05212     3.39027
    2          C(HETATM    2  C2  HET A   1)          -0.245837        4.2458     1.05726     3.18858
    3          C(HETATM    3  C3  HET A   1)          -0.256114        4.2561     1.05434     3.20177
    4          C(HETATM    4  C4  HET A   1)          -0.420283        4.4203     1.09204     3.32824
    5          C(HETATM    5  C1  HET B   2)          -0.441222        4.4412     1.05174     3.38948
    6          C(HETATM    6  C2  HET B   2)          -0.246443        4.2464     1.05540     3.19105
    7          C(HETATM    7  C3  HET B   2)          -0.269277        4.2693     1.05234     3.21693
    8          C(HETATM    8  C4  HET B   2)          -0.369628        4.3696     1.11058     3.25905
    9          H(HETATM    9 1H1  HET A   1)           0.142789        0.8572     0.85721
   10          H(HETATM   10 2H1  HET A   1)           0.141143        0.8589     0.85886
   11          H(HETATM   11 3H1  HET A   1)           0.139442        0.8606     0.86056
   12          H(HETATM   12 1H2  HET A   1)           0.132749        0.8673     0.86725
   13          H(HETATM   13 2H2  HET A   1)           0.133242        0.8668     0.86676
   14          H(HETATM   14 1H3  HET A   1)           0.135817        0.8642     0.86418
   15          H(HETATM   15 2H3  HET A   1)           0.136199        0.8638     0.86380
   16          H(HETATM   16 1H4  HET A   1)           0.134786        0.8652     0.86521
   17          H(HETATM   17 2H4  HET A   1)           0.136308        0.8637     0.86369
   18          H(HETATM   18 3H4  HET B   2)           0.135189        0.8648     0.86481
   19          H(HETATM   19 1H1  HET B   2)           0.140956        0.8590     0.85904
   20          H(HETATM   20 2H1  HET B   2)           0.142859        0.8571     0.85714
   21          H(HETATM   21 3H1  HET B   2)           0.141103        0.8589     0.85890
   22          H(HETATM   22 1H2  HET B   2)           0.133337        0.8667     0.86666
   23          H(HETATM   23 2H2  HET B   2)           0.139196        0.8608     0.86080
   24          H(HETATM   24 1H3  HET B   2)           0.141471        0.8585     0.85853
   25          H(HETATM   25 2H3  HET B   2)           0.144301        0.8557     0.85570
   26          H(HETATM   26 1H4  HET B   2)           0.206884        0.7931     0.79312
   27          H(HETATM   27 2H4  HET B   2)           0.133429        0.8666     0.86657

          NET CHARGE ON RESIDUES

      Residue         Charge  Anion or
                              Cation?
      HET A   1       -0.132
      HET B   2       +0.132
 


 DIPOLE           X         Y         Z       TOTAL
 POINT-CHG.     0.022     0.166     0.334     0.374
 HYBRID         0.049    -0.006     0.031     0.058
 SUM            0.072     0.160     0.365     0.405


          ATOMIC ORBITAL ELECTRON POPULATIONS

                   Atom                  s        px        py        pz   
   C(HETATM    1  C1  HET A   1)   1.05212   1.05039   1.16938   1.17050
   C(HETATM    2  C2  HET A   1)   1.05726   0.98811   1.04720   1.15327
   C(HETATM    3  C3  HET A   1)   1.05434   0.99861   1.04847   1.15469
   C(HETATM    4  C4  HET A   1)   1.09204   1.03052   1.15642   1.14130
   C(HETATM    5  C1  HET B   2)   1.05174   1.15266   1.14443   1.09239
   C(HETATM    6  C2  HET B   2)   1.05540   1.09781   1.06227   1.03097
   C(HETATM    7  C3  HET B   2)   1.05234   1.10891   1.08222   1.02581
   C(HETATM    8  C4  HET B   2)   1.11058   1.09509   1.12181   1.04214
   H(HETATM    9 1H1  HET A   1)   0.85721
   H(HETATM   10 2H1  HET A   1)   0.85886
   H(HETATM   11 3H1  HET A   1)   0.86056
   H(HETATM   12 1H2  HET A   1)   0.86725
   H(HETATM   13 2H2  HET A   1)   0.86676
   H(HETATM   14 1H3  HET A   1)   0.86418
   H(HETATM   15 2H3  HET A   1)   0.86380
   H(HETATM   16 1H4  HET A   1)   0.86521
   H(HETATM   17 2H4  HET A   1)   0.86369
   H(HETATM   18 3H4  HET B   2)   0.86481
   H(HETATM   19 1H1  HET B   2)   0.85904
   H(HETATM   20 2H1  HET B   2)   0.85714
   H(HETATM   21 3H1  HET B   2)   0.85890
   H(HETATM   22 1H2  HET B   2)   0.86666
   H(HETATM   23 2H2  HET B   2)   0.86080
   H(HETATM   24 1H3  HET B   2)   0.85853
   H(HETATM   25 2H3  HET B   2)   0.85570
   H(HETATM   26 1H4  HET B   2)   0.79312
   H(HETATM   27 2H4  HET B   2)   0.86657


                    (SZ)    =    0.500000
                    (S**2)  =    0.770658


          ATOMIC ORBITAL SPIN POPULATIONS

    Atom   Total    s     px     py     pz   
         Atomic
    1  C  0.0001 -0.000  0.000 -0.000 -0.000
    2  C  0.0109  0.002  0.002  0.006  0.001
    3  C -0.0169 -0.002 -0.010 -0.004 -0.001
    4  C  0.4408  0.043  0.047  0.169  0.182
    5  C -0.0006 -0.000 -0.000 -0.000 -0.000
    6  C  0.0057  0.001  0.002  0.002  0.002
    7  C -0.0283 -0.004 -0.006 -0.006 -0.012
    8  C  0.7385  0.055  0.492  0.039  0.152
    9  H  0.0000  0.000
   10  H  0.0000  0.000
   11  H  0.0002  0.000
   12  H -0.0003 -0.000
   13  H -0.0004 -0.000
   14  H  0.0015  0.001
   15  H  0.0067  0.007
   16  H -0.0123 -0.012
   17  H -0.0131 -0.013
   18  H -0.0202 -0.020
   19  H  0.0000  0.000
   20  H  0.0000  0.000
   21  H  0.0001  0.000
   22  H -0.0002 -0.000
   23  H -0.0003 -0.000
   24  H  0.0051  0.005
   25  H  0.0260  0.026
   26  H -0.1236 -0.124
   27  H -0.0194 -0.019

 **********************
 *                    *
 * JOB ENDED NORMALLY *
 *                    *
 **********************



 TOTAL JOB TIME:            22.95 SECONDS

 == MOPAC DONE ==
