 *******************************************************************************
 ** Site#: 9602  E-mail support:    MrMOPAC@ATT.net    Version 18.053W 64BITS **
 *******************************************************************************
 ** Cite this program as: MOPAC2016, Version: 18.053W, James J. P. Stewart,   **
 ** Stewart Computational Chemistry, web: HTTP://OpenMOPAC.net. Days left: 174**
 *******************************************************************************
 **                                                                           **
 **                                MOPAC2016                                  **
 **                                                                           **
 *******************************************************************************

                              PM7 CALCULATION RESULTS


 *******************************************************************************
 *  CALCULATION DONE:                                Thu Feb 22 16:50:29 2018  *
 *  SYMMETRY   - SYMMETRY CONDITIONS TO BE IMPOSED
 *  EPS= 78.40 - USE ANDREAS KLAMT'S COSMO IMPLICIT SOLVATION MODEL
 *  STEP       - STEP-SIZE IN PATH =  -0.010
 *  POINT      - NUMBER OF POINTS IN PATH = 10
 *  T=         - A TIME OF 172800.0 SECONDS REQUESTED
 *  DUMP=N     - RESTART FILE WRITTEN EVERY  7200.000 SECONDS
 *  HTML       - WRITE HTML SCRIPT TO GENERATE ANIMATION USING JSMOL
 *             - TO DISPLAY IN PDB FORMAT, ADD "PDBOUT"
 *  HTML(NORES)- SUPPRESS LIST OF RESIDUES IN HTML FILE
 *******************************************************************************



                    PARAMETER DEPENDENCE DATA

        REFERENCE ATOM      FUNCTION NO.    DEPENDENT ATOM(S)
           11                  1              23

             DESCRIPTIONS OF THE FUNCTIONS USED
   1      BOND LENGTH    IS SET EQUAL TO THE REFERENCE BOND LENGTH   
 
 eps=78.4 HTML(nores) symmetry  step=-0.01 points=10
 Using a a symmetry-defined dummy atom to locate the transition state for the reaction [CHO-CH-CH3]^(-) + [C5H5N-CH3]^(+) => CHO-CH=CH2 + C5H6N-CH3
 (Second attempt - search from -0.05 to +0.05 Angstroms)
  ATOM               CHEMICAL                 BOND LENGTH      BOND ANGLE     TWIST ANGLE 
 NUMBER               SYMBOL                  (ANGSTROMS)      (DEGREES)       (DEGREES) 
   (I)                                           NA:I           NB:NA:I       NC:NB:NA:I       NA    NB    NC 
     1       O(HETATM    1  O   HET A   1)   -1.92855612  *   -0.7583076  *   -0.2496616  *
     2       C(HETATM    2  C   HET B   2)    1.80894420  *   -1.1153332  *    0.0050757  *
     3       C(HETATM    3  C   HET C   1)   -1.98966483  *    0.4410587  *    0.0010132  *
     4       C(HETATM    4  C1  HET D   2)    0.81392136  *    0.5329764  *    1.4470062  *
     5       N(HETATM    5  N   HET D   2)    1.16788615  *   -0.7865787  *    1.1953957  *
     6       C(HETATM    6  C2  HET D   2)    1.11834047  *    1.5234048  *    0.5687942  *
     7       C(HETATM    7  C3  HET D   2)    1.66432925  *    1.2141708  *   -0.7520805  *
     8       C(HETATM    8  C4  HET D   2)    2.13419040  *   -0.1634813  *   -0.9044412  *
     9       H(HETATM    9  H   HET E   1)   -2.43083388  *    0.7389968  *    0.9652548  *
    10       C(HETATM   10  C   HET F   2)    0.58185638  *   -1.8481640  *    2.0156284  *
    11      XX(HETATM   11 XX   HET K   1)    1.39473512  *  103.9574041  *   99.7119483  *     7     6     4
    12       H(HETATM   11 1H1  HET K   1)    0.05000000  +  180.0000000       0.0000000       11     7     6
    13       H(HETATM   12 2H1  HET K   1)   -0.64482114  *    0.1534795  *   -2.3431653  *
    14       H(HETATM   13 3H1  HET K   1)   -0.61480900  *    1.9317825  *   -2.7878373  *
    15       H(HETATM   14  H2  HET K   1)   -1.79466719  *    2.4904071  *   -0.6454156  *
    16       H(HETATM   15  H1  HET D   2)    0.33448968  *    0.7232801  *    2.4150905  *
    17       H(HETATM   16  H2  HET D   2)    0.92669549  *    2.5642607  *    0.8059299  *
    18       H(HETATM   17  H3  HET D   2)    2.29004938  *    1.9896576  *   -1.2097163  *
    19       H(HETATM   18  H4  HET D   2)    2.72454739  *   -0.3998536  *   -1.7834026  *
    20       H(HETATM   19 1H   HET F   2)    0.63129878  *   -1.5848040  *    3.0884999  *
    21       H(HETATM   20 2H   HET F   2)    1.12677711  *   -2.8006099  *    1.8823074  *
    22       H(HETATM   21 3H   HET F   2)   -0.47862784  *   -2.0213981  *    1.7495109  *
    23       C(HETATM   22  C1  HET K   1)    1.39473512     157.4568170  *  -35.9377026  *    11     7     6
    24       C(HETATM   23  C2  HET K   1)   -1.54401765  *    1.4658193  *   -0.9013172  *
    25       H(HETATM   24  H   HET B   2)    2.07446105  *   -2.1721104  *   -0.1183151  *
 

 General Reference for PM7:
 "Optimization of Parameters for Semiempirical Methods VI: More Modifications to the 
 NDDO Approximations and Re-optimization of Parameters", J. J. P. Stewart, J. Mol. Mod., 1:32, 19 (2013)
 http://www.springerlink.com/openurl.asp?genre=article&id=doi:10.1007/s00894-012-1667-x

           Empirical Formula: C9 H13 N O  =    24 atoms



      MOLECULAR POINT GROUP   :   C1  


      RHF CALCULATION, NO. OF DOUBLY OCCUPIED LEVELS = 30

  ABOUT TO ENTER EF FROM PATHK

          Geometry optimization using EF

          DIAGONAL MATRIX USED AS START HESSIAN

 CYCLE:     1 TIME:   0.047 TIME LEFT:  2.00D  GRAD.:    88.234 HEAT:  34.52956
 CYCLE:     2 TIME:   0.172 TIME LEFT:  2.00D  GRAD.:    96.961 HEAT:  34.35562
 CYCLE:     3 TIME:   0.016 TIME LEFT:  2.00D  GRAD.:    53.508 HEAT:  34.02911
 CYCLE:     4 TIME:   0.031 TIME LEFT:  2.00D  GRAD.:    60.462 HEAT:  33.79966
 CYCLE:     5 TIME:   0.016 TIME LEFT:  2.00D  GRAD.:    46.466 HEAT:  33.53204
 CYCLE:     6 TIME:   0.031 TIME LEFT:  2.00D  GRAD.:    18.553 HEAT:  33.19356
 CYCLE:     7 TIME:   0.031 TIME LEFT:  2.00D  GRAD.:    44.739 HEAT:  32.95239
 CYCLE:     8 TIME:   0.016 TIME LEFT:  2.00D  GRAD.:    26.111 HEAT:  32.62692
 CYCLE:     9 TIME:   0.078 TIME LEFT:  2.00D  GRAD.:    25.757 HEAT:  32.58672
 CYCLE:    10 TIME:   0.016 TIME LEFT:  2.00D  GRAD.:    15.281 HEAT:  32.47339
 CYCLE:    11 TIME:   0.031 TIME LEFT:  2.00D  GRAD.:    24.265 HEAT:  32.31826
 CYCLE:    12 TIME:   0.047 TIME LEFT:  2.00D  GRAD.:    18.715 HEAT:  32.30141
 CYCLE:    13 TIME:   0.016 TIME LEFT:  2.00D  GRAD.:    27.158 HEAT:  32.28603
 CYCLE:    14 TIME:   0.031 TIME LEFT:  2.00D  GRAD.:    14.737 HEAT:  32.18111
 CYCLE:    15 TIME:   0.047 TIME LEFT:  2.00D  GRAD.:    18.234 HEAT:  32.14956
 CYCLE:    16 TIME:   0.016 TIME LEFT:  2.00D  GRAD.:    10.400 HEAT:  32.10108
 CYCLE:    17 TIME:   0.016 TIME LEFT:  2.00D  GRAD.:    24.757 HEAT:  32.08059
 CYCLE:    18 TIME:   0.016 TIME LEFT:  2.00D  GRAD.:    13.356 HEAT:  32.00641
 CYCLE:    19 TIME:   0.047 TIME LEFT:  2.00D  GRAD.:    23.656 HEAT:  32.00131
 CYCLE:    20 TIME:   0.031 TIME LEFT:  2.00D  GRAD.:    13.418 HEAT:  31.97178
 CYCLE:    21 TIME:   0.012 TIME LEFT:  2.00D  GRAD.:    29.199 HEAT:  31.83620
 CYCLE:    22 TIME:   0.020 TIME LEFT:  2.00D  GRAD.:    11.850 HEAT:  31.77038
 CYCLE:    23 TIME:   0.027 TIME LEFT:  2.00D  GRAD.:    29.075 HEAT:  31.74422
 CYCLE:    24 TIME:   0.020 TIME LEFT:  2.00D  GRAD.:    13.632 HEAT:  31.66257
 CYCLE:    25 TIME:   0.031 TIME LEFT:  2.00D  GRAD.:    14.519 HEAT:  31.63314
 CYCLE:    26 TIME:   0.047 TIME LEFT:  2.00D  GRAD.:     2.875 HEAT:  31.62685
 CYCLE:    27 TIME:   0.027 TIME LEFT:  2.00D  GRAD.:     5.533 HEAT:  31.62057
 CYCLE:    28 TIME:   0.051 TIME LEFT:  2.00D  GRAD.:     4.131 HEAT:  31.61511
 CYCLE:    29 TIME:   0.047 TIME LEFT:  2.00D  GRAD.:     1.795 HEAT:  31.61451
 CYCLE:    30 TIME:   0.078 TIME LEFT:  2.00D  GRAD.:     1.961 HEAT:  31.61479
 CYCLE:    31 TIME:   0.074 TIME LEFT:  2.00D  GRAD.:     2.343 HEAT:  31.61890
 CYCLE:    32 TIME:   0.172 TIME LEFT:  2.00D  GRAD.:     1.428 HEAT:  31.61695
 CYCLE:    33 TIME:   0.109 TIME LEFT:  2.00D  GRAD.:     1.417 HEAT:  31.62281
 CYCLE:    34 TIME:   0.156 TIME LEFT:  2.00D  GRAD.:     1.118 HEAT:  31.62185
 CYCLE:    35 TIME:   0.125 TIME LEFT:  2.00D  GRAD.:     1.780 HEAT:  31.62031
 CYCLE:    36 TIME:   0.109 TIME LEFT:  2.00D  GRAD.:     1.228 HEAT:  31.62864
 CYCLE:    37 TIME:   0.109 TIME LEFT:  2.00D  GRAD.:     1.052 HEAT:  31.63356
 CYCLE:    38 TIME:   0.047 TIME LEFT:  2.00D  GRAD.:     2.844 HEAT:  31.63202
 CYCLE:    39 TIME:   0.078 TIME LEFT:  2.00D  GRAD.:     1.924 HEAT:  31.63448
 CYCLE:    40 TIME:   0.047 TIME LEFT:  2.00D  GRAD.:     1.674 HEAT:  31.64062
 CYCLE:    41 TIME:   0.078 TIME LEFT:  2.00D  GRAD.:     1.261 HEAT:  31.64258
 CYCLE:    42 TIME:   0.078 TIME LEFT:  2.00D  GRAD.:     2.443 HEAT:  31.65157
 CYCLE:    43 TIME:   0.047 TIME LEFT:  2.00D  GRAD.:     2.316 HEAT:  31.66108
 CYCLE:    44 TIME:   0.047 TIME LEFT:  2.00D  GRAD.:     1.126 HEAT:  31.66455
 CYCLE:    45 TIME:   0.047 TIME LEFT:  2.00D  GRAD.:     1.023 HEAT:  31.66998
 CYCLE:    46 TIME:   0.047 TIME LEFT:  2.00D  GRAD.:     1.679 HEAT:  31.67527
 CYCLE:    47 TIME:   0.016 TIME LEFT:  2.00D  GRAD.:     2.140 HEAT:  31.68061
 CYCLE:    48 TIME:   0.031 TIME LEFT:  2.00D  GRAD.:     2.626 HEAT:  31.67309
 CYCLE:    49 TIME:   0.047 TIME LEFT:  2.00D  GRAD.:     2.586 HEAT:  31.68128
 CYCLE:    50 TIME:   0.094 TIME LEFT:  2.00D  GRAD.:     2.153 HEAT:  31.69054
 CYCLE:    51 TIME:   0.109 TIME LEFT:  2.00D  GRAD.:     1.106 HEAT:  31.69266
 CYCLE:    52 TIME:   0.141 TIME LEFT:  2.00D  GRAD.:     0.975 HEAT:  31.69078

     GRADIENT =  0.97485  IS LESS THAN CUTOFF =  1.00000



          VARIABLE        FUNCTION
 :         0.05000       31.690782
 eps=78.4 HTML(nores) symmetry  step=-0.01 points=10
 Using a a symmetry-defined dummy atom to locate the transition state for the reaction [CHO-CH-CH3]^(-) + [C5H5N-CH3]^(+) => CHO-CH=CH2 + C5H6N-CH3
 (Second attempt - search from -0.05 to +0.05 Angstroms)
  O(HETATM    1  O   HET A   1)  -1.83459586 +1   -0.7257246 +1   -0.1274944 +1
  C(HETATM    2  C   HET B   2)   1.77597358 +1   -1.1403447 +1    0.0025494 +1
  C(HETATM    3  C   HET C   1)  -1.94372797 +1    0.5081639 +1    0.0308803 +1
  C(HETATM    4  C1  HET D   2)   0.77468970 +1    0.5101451 +1    1.4044340 +1
  N(HETATM    5  N   HET D   2)   1.06727517 +1   -0.8007940 +1    1.1317599 +1
  C(HETATM    6  C2  HET D   2)   1.15059218 +1    1.5099019 +1    0.5342115 +1
  C(HETATM    7  C3  HET D   2)   1.73158293 +1    1.1798802 +1   -0.7286585 +1
  C(HETATM    8  C4  HET D   2)   2.15895903 +1   -0.1771443 +1   -0.8970693 +1
  H(HETATM    9  H   HET E   1)  -2.48546348 +1    0.8122836 +1    0.9418924 +1
  C(HETATM   10  C   HET F   2)   0.57161832 +1   -1.8490478 +1    2.0258994 +1
 XX(HETATM   11 XX   HET K   1)   1.39164051 +1  102.3882540 +1   97.2066163 +1     7     6     4
  H(HETATM   11 1H1  HET K   1)   0.05000000 -1  180.0000000 +0    0.0000000 +0    11     7     6
  H(HETATM   12 2H1  HET K   1)  -0.72580682 +1    0.1610034 +1   -2.3634251 +1
  H(HETATM   13 3H1  HET K   1)  -0.68203053 +1    1.9166649 +1   -2.8036900 +1
  H(HETATM   14  H2  HET K   1)  -1.65660154 +1    2.5214275 +1   -0.6030902 +1
  H(HETATM   15  H1  HET D   2)   0.25327391 +1    0.7226209 +1    2.3503835 +1
  H(HETATM   16  H2  HET D   2)   0.96320561 +1    2.5541032 +1    0.7823430 +1
  H(HETATM   17  H3  HET D   2)   2.23440698 +1    1.9703996 +1   -1.3075593 +1
  H(HETATM   18  H4  HET D   2)   2.76365650 +1   -0.4400454 +1   -1.7647120 +1
  H(HETATM   19 1H   HET F   2)   0.65606320 +1   -1.5464903 +1    3.0875365 +1
  H(HETATM   20 2H   HET F   2)   1.14037028 +1   -2.7904061 +1    1.9069347 +1
  H(HETATM   21 3H   HET F   2)  -0.49688923 +1   -2.0612304 +1    1.8101114 +1
  C(HETATM   22  C1  HET K   1)   1.39164051 +0  158.1237043 +1  -29.2372614 +1    11     7     6
  C(HETATM   23  C2  HET K   1)  -1.47802944 +1    1.4853932 +1   -0.8404600 +1
  H(HETATM   24  H   HET B   2)   2.03326484 +1   -2.2021052 +1   -0.1286206 +1
 
  11  1   23
 

          Geometry optimization using EF

          DIAGONAL MATRIX USED AS START HESSIAN

 CYCLE:     1 TIME:   0.016 TIME LEFT:  2.00D  GRAD.:    24.202 HEAT:  32.18399
 CYCLE:     2 TIME:   0.141 TIME LEFT:  2.00D  GRAD.:    28.434 HEAT:  32.18078
 CYCLE:     3 TIME:   0.031 TIME LEFT:  2.00D  GRAD.:    15.211 HEAT:  32.16787
 CYCLE:     4 TIME:   0.016 TIME LEFT:  2.00D  GRAD.:    13.375 HEAT:  32.16323
 CYCLE:     5 TIME:   0.031 TIME LEFT:  2.00D  GRAD.:     7.288 HEAT:  32.16029
 CYCLE:     6 TIME:   0.012 TIME LEFT:  2.00D  GRAD.:     6.334 HEAT:  32.15107
 CYCLE:     7 TIME:   0.035 TIME LEFT:  2.00D  GRAD.:     4.019 HEAT:  32.15929
 CYCLE:     8 TIME:   0.016 TIME LEFT:  2.00D  GRAD.:     9.173 HEAT:  32.16642
 CYCLE:     9 TIME:   0.016 TIME LEFT:  2.00D  GRAD.:     5.460 HEAT:  32.16245
 CYCLE:    10 TIME:   0.047 TIME LEFT:  2.00D  GRAD.:    11.139 HEAT:  32.16322
 CYCLE:    11 TIME:   0.031 TIME LEFT:  2.00D  GRAD.:     6.003 HEAT:  32.14443
 CYCLE:    12 TIME:   0.078 TIME LEFT:  2.00D  GRAD.:     3.229 HEAT:  32.14936
 CYCLE:    13 TIME:   0.012 TIME LEFT:  2.00D  GRAD.:     1.412 HEAT:  32.15876
 CYCLE:    14 TIME:   0.035 TIME LEFT:  2.00D  GRAD.:     6.359 HEAT:  32.15946
 CYCLE:    15 TIME:   0.012 TIME LEFT:  2.00D  GRAD.:     2.714 HEAT:  32.15339
 CYCLE:    16 TIME:   0.047 TIME LEFT:  2.00D  GRAD.:     3.734 HEAT:  32.15888
 CYCLE:    17 TIME:   0.020 TIME LEFT:  2.00D  GRAD.:     2.542 HEAT:  32.15025
 CYCLE:    18 TIME:   0.027 TIME LEFT:  2.00D  GRAD.:     6.143 HEAT:  32.15640
 CYCLE:    19 TIME:   0.016 TIME LEFT:  2.00D  GRAD.:     3.870 HEAT:  32.16340
 CYCLE:    20 TIME:   0.035 TIME LEFT:  2.00D  GRAD.:     7.536 HEAT:  32.15818
 CYCLE:    21 TIME:   0.012 TIME LEFT:  2.00D  GRAD.:     2.539 HEAT:  32.15086
 CYCLE:    22 TIME:   0.047 TIME LEFT:  2.00D  GRAD.:     6.435 HEAT:  32.15547
 CYCLE:    23 TIME:   0.031 TIME LEFT:  2.00D  GRAD.:     3.096 HEAT:  32.15390
 CYCLE:    24 TIME:   0.016 TIME LEFT:  2.00D  GRAD.:     7.779 HEAT:  32.15833
 CYCLE:    25 TIME:   0.016 TIME LEFT:  2.00D  GRAD.:     1.541 HEAT:  32.15010
 CYCLE:    26 TIME:   0.031 TIME LEFT:  2.00D  GRAD.:     4.897 HEAT:  32.15771
 CYCLE:    27 TIME:   0.016 TIME LEFT:  2.00D  GRAD.:     1.316 HEAT:  32.14777
 CYCLE:    28 TIME:   0.031 TIME LEFT:  2.00D  GRAD.:     3.819 HEAT:  32.14582
 CYCLE:    29 TIME:   0.016 TIME LEFT:  2.00D  GRAD.:     1.158 HEAT:  32.13976
 CYCLE:    30 TIME:   0.016 TIME LEFT:  2.00D  GRAD.:     1.989 HEAT:  32.13687
 CYCLE:    31 TIME:   0.031 TIME LEFT:  2.00D  GRAD.:     4.633 HEAT:  32.11432
 CYCLE:    32 TIME:   0.016 TIME LEFT:  2.00D  GRAD.:     3.971 HEAT:  32.08888
 CYCLE:    33 TIME:   0.031 TIME LEFT:  2.00D  GRAD.:     2.222 HEAT:  32.07829
 CYCLE:    34 TIME:   0.016 TIME LEFT:  2.00D  GRAD.:     2.370 HEAT:  32.06382
 CYCLE:    35 TIME:   0.031 TIME LEFT:  2.00D  GRAD.:     2.062 HEAT:  32.04621
 CYCLE:    36 TIME:   0.031 TIME LEFT:  2.00D  GRAD.:     2.269 HEAT:  32.03207
 CYCLE:    37 TIME:   0.047 TIME LEFT:  2.00D  GRAD.:     2.069 HEAT:  32.03276
 CYCLE:    38 TIME:   0.094 TIME LEFT:  2.00D  GRAD.:     1.359 HEAT:  32.03006
 CYCLE:    39 TIME:   0.078 TIME LEFT:  2.00D  GRAD.:     1.439 HEAT:  32.02741
 CYCLE:    40 TIME:   0.078 TIME LEFT:  2.00D  GRAD.:     2.044 HEAT:  32.02987
 CYCLE:    41 TIME:   0.078 TIME LEFT:  2.00D  GRAD.:     2.322 HEAT:  32.02375
 CYCLE:    42 TIME:   0.062 TIME LEFT:  2.00D  GRAD.:     1.427 HEAT:  32.03181
 CYCLE:    43 TIME:   0.062 TIME LEFT:  2.00D  GRAD.:     1.873 HEAT:  32.03685
 CYCLE:    44 TIME:   0.062 TIME LEFT:  2.00D  GRAD.:     1.710 HEAT:  32.03614
 CYCLE:    45 TIME:   0.078 TIME LEFT:  2.00D  GRAD.:     1.827 HEAT:  32.03464
 CYCLE:    46 TIME:   0.109 TIME LEFT:  2.00D  GRAD.:     1.079 HEAT:  32.03197
 CYCLE:    47 TIME:   0.125 TIME LEFT:  2.00D  GRAD.:     1.078 HEAT:  32.02657
 CYCLE:    48 TIME:   0.156 TIME LEFT:  2.00D  GRAD.:     0.769 HEAT:  32.02575

     GRADIENT =  0.76905  IS LESS THAN CUTOFF =  1.00000



          VARIABLE        FUNCTION
 :         0.04000       32.025748
 eps=78.4 HTML(nores) symmetry  step=-0.01 points=10
 Using a a symmetry-defined dummy atom to locate the transition state for the reaction [CHO-CH-CH3]^(-) + [C5H5N-CH3]^(+) => CHO-CH=CH2 + C5H6N-CH3
 (Second attempt - search from -0.05 to +0.05 Angstroms)
  O(HETATM    1  O   HET A   1)  -1.89395718 +1   -0.6581650 +1   -0.1036484 +1
  C(HETATM    2  C   HET B   2)   1.77647462 +1   -1.1729806 +1    0.0138350 +1
  C(HETATM    3  C   HET C   1)  -1.92390893 +1    0.5751286 +1    0.0678292 +1
  C(HETATM    4  C1  HET D   2)   0.77285282 +1    0.5085625 +1    1.3804260 +1
  N(HETATM    5  N   HET D   2)   1.06550490 +1   -0.8099882 +1    1.1376001 +1
  C(HETATM    6  C2  HET D   2)   1.13916255 +1    1.4869692 +1    0.4857429 +1
  C(HETATM    7  C3  HET D   2)   1.71381702 +1    1.1300015 +1   -0.7783562 +1
  C(HETATM    8  C4  HET D   2)   2.15281014 +1   -0.2326719 +1   -0.9082529 +1
  H(HETATM    9  H   HET E   1)  -2.39761808 +1    0.9075787 +1    1.0059349 +1
  C(HETATM   10  C   HET F   2)   0.55697598 +1   -1.8398804 +1    2.0456582 +1
 XX(HETATM   11 XX   HET K   1)   1.39006141 +1  102.8647060 +1   97.4929614 +1     7     6     4
  H(HETATM   11 1H1  HET K   1)   0.04000000 -1  180.0000000 +0    0.0000000 +0    11     7     6
  H(HETATM   12 2H1  HET K   1)  -0.80442895 +1    0.1467006 +1   -2.3535255 +1
  H(HETATM   13 3H1  HET K   1)  -0.67523896 +1    1.8952564 +1   -2.8201285 +1
  H(HETATM   14  H2  HET K   1)  -1.56138259 +1    2.5734192 +1   -0.5933253 +1
  H(HETATM   15  H1  HET D   2)   0.26001372 +1    0.7420634 +1    2.3256049 +1
  H(HETATM   16  H2  HET D   2)   0.95268128 +1    2.5357626 +1    0.7092108 +1
  H(HETATM   17  H3  HET D   2)   2.23252493 +1    1.9071509 +1   -1.3594657 +1
  H(HETATM   18  H4  HET D   2)   2.76288653 +1   -0.5112761 +1   -1.7663140 +1
  H(HETATM   19 1H   HET F   2)   0.64366055 +1   -1.5232564 +1    3.1026479 +1
  H(HETATM   20 2H   HET F   2)   1.11352746 +1   -2.7897665 +1    1.9397182 +1
  H(HETATM   21 3H   HET F   2)  -0.51279321 +1   -2.0448505 +1    1.8319860 +1
  C(HETATM   22  C1  HET K   1)   1.39006141 +0  156.6680150 +1  -21.2622828 +1    11     7     6
  C(HETATM   23  C2  HET K   1)  -1.44310960 +1    1.5281308 +1   -0.8317526 +1
  H(HETATM   24  H   HET B   2)   2.04132983 +1   -2.2352316 +1   -0.0872633 +1
 
  11  1   23
 

          Geometry optimization using EF

          DIAGONAL MATRIX USED AS START HESSIAN

 CYCLE:     1 TIME:   0.031 TIME LEFT:  2.00D  GRAD.:    26.321 HEAT:  32.35829
 CYCLE:     2 TIME:   0.141 TIME LEFT:  2.00D  GRAD.:    32.330 HEAT:  32.35645
 CYCLE:     3 TIME:   0.016 TIME LEFT:  2.00D  GRAD.:    15.256 HEAT:  32.33678
 CYCLE:     4 TIME:   0.047 TIME LEFT:  2.00D  GRAD.:     8.852 HEAT:  32.32793
 CYCLE:     5 TIME:   0.016 TIME LEFT:  2.00D  GRAD.:     6.208 HEAT:  32.30038
 CYCLE:     6 TIME:   0.031 TIME LEFT:  2.00D  GRAD.:     4.447 HEAT:  32.29761
 CYCLE:     7 TIME:   0.016 TIME LEFT:  2.00D  GRAD.:     2.940 HEAT:  32.29305
 CYCLE:     8 TIME:   0.078 TIME LEFT:  2.00D  GRAD.:     2.511 HEAT:  32.27923
 CYCLE:     9 TIME:   0.047 TIME LEFT:  2.00D  GRAD.:     2.281 HEAT:  32.27621
 CYCLE:    10 TIME:   0.156 TIME LEFT:  2.00D  GRAD.:     1.979 HEAT:  32.27570

     TRUST RADIUS NOW LESS THAN  0.00010 OPTIMIZATION TERMINATING
      THE GEOMETRY MAY NOT BE COMPLETELY OPTIMIZED
      (TO CONTINUE, ADD 'LET DDMIN=0.0' TO THE KEYWORD LINE)

          VARIABLE        FUNCTION
 :         0.03000       32.275697
 eps=78.4 HTML(nores) symmetry  step=-0.01 points=10
 Using a a symmetry-defined dummy atom to locate the transition state for the reaction [CHO-CH-CH3]^(-) + [C5H5N-CH3]^(+) => CHO-CH=CH2 + C5H6N-CH3
 (Second attempt - search from -0.05 to +0.05 Angstroms)
  O(HETATM    1  O   HET A   1)  -1.89453943 +1   -0.6571267 +1   -0.1040112 +1
  C(HETATM    2  C   HET B   2)   1.77756275 +1   -1.1730459 +1    0.0128400 +1
  C(HETATM    3  C   HET C   1)  -1.92479922 +1    0.5731192 +1    0.0698611 +1
  C(HETATM    4  C1  HET D   2)   0.77302955 +1    0.5101174 +1    1.3803063 +1
  N(HETATM    5  N   HET D   2)   1.06608064 +1   -0.8102951 +1    1.1383926 +1
  C(HETATM    6  C2  HET D   2)   1.13727248 +1    1.4871386 +1    0.4864286 +1
  C(HETATM    7  C3  HET D   2)   1.70887645 +1    1.1304044 +1   -0.7837581 +1
  C(HETATM    8  C4  HET D   2)   2.15356969 +1   -0.2347160 +1   -0.9083551 +1
  H(HETATM    9  H   HET E   1)  -2.39765434 +1    0.9082711 +1    1.0069511 +1
  C(HETATM   10  C   HET F   2)   0.55657552 +1   -1.8400758 +1    2.0457674 +1
 XX(HETATM   11 XX   HET K   1)   1.39152635 +1  102.9332056 +1   97.4085863 +1     7     6     4
  H(HETATM   11 1H1  HET K   1)   0.03000000 -1  180.0000000 +0    0.0000000 +0    11     7     6
  H(HETATM   12 2H1  HET K   1)  -0.80350584 +1    0.1460318 +1   -2.3529303 +1
  H(HETATM   13 3H1  HET K   1)  -0.67362566 +1    1.8957819 +1   -2.8196512 +1
  H(HETATM   14  H2  HET K   1)  -1.56172072 +1    2.5743857 +1   -0.5926107 +1
  H(HETATM   15  H1  HET D   2)   0.26055488 +1    0.7418651 +1    2.3256668 +1
  H(HETATM   16  H2  HET D   2)   0.95313285 +1    2.5357287 +1    0.7090492 +1
  H(HETATM   17  H3  HET D   2)   2.23567200 +1    1.9067037 +1   -1.3575309 +1
  H(HETATM   18  H4  HET D   2)   2.76285813 +1   -0.5115141 +1   -1.7662614 +1
  H(HETATM   19 1H   HET F   2)   0.64362420 +1   -1.5233091 +1    3.1026267 +1
  H(HETATM   20 2H   HET F   2)   1.11362379 +1   -2.7896096 +1    1.9396842 +1
  H(HETATM   21 3H   HET F   2)  -0.51287209 +1   -2.0449209 +1    1.8323378 +1
  C(HETATM   22  C1  HET K   1)   1.39152635 +0  156.6452509 +1  -21.2436152 +1    11     7     6
  C(HETATM   23  C2  HET K   1)  -1.44297630 +1    1.5290262 +1   -0.8337577 +1
  H(HETATM   24  H   HET B   2)   2.04104547 +1   -2.2353034 +1   -0.0868833 +1
 
  11  1   23
 

          Geometry optimization using EF

          DIAGONAL MATRIX USED AS START HESSIAN

 CYCLE:     1 TIME:   0.031 TIME LEFT:  2.00D  GRAD.:    27.421 HEAT:  32.48790
 CYCLE:     2 TIME:   0.125 TIME LEFT:  2.00D  GRAD.:    34.601 HEAT:  32.48267
 CYCLE:     3 TIME:   0.027 TIME LEFT:  2.00D  GRAD.:    15.882 HEAT:  32.45463
 CYCLE:     4 TIME:   0.062 TIME LEFT:  2.00D  GRAD.:     8.409 HEAT:  32.44652
 CYCLE:     5 TIME:   0.035 TIME LEFT:  2.00D  GRAD.:     6.787 HEAT:  32.44190
 CYCLE:     6 TIME:   0.012 TIME LEFT:  2.00D  GRAD.:     7.169 HEAT:  32.44882
 CYCLE:     7 TIME:   0.031 TIME LEFT:  2.00D  GRAD.:     4.980 HEAT:  32.44327
 CYCLE:     8 TIME:   0.016 TIME LEFT:  2.00D  GRAD.:     4.388 HEAT:  32.43112
 CYCLE:     9 TIME:   0.094 TIME LEFT:  2.00D  GRAD.:     4.456 HEAT:  32.43105
 CYCLE:    10 TIME:   0.031 TIME LEFT:  2.00D  GRAD.:    14.346 HEAT:  32.43314
 CYCLE:    11 TIME:   0.062 TIME LEFT:  2.00D  GRAD.:    22.349 HEAT:  32.41028
 CYCLE:    12 TIME:   0.109 TIME LEFT:  2.00D  GRAD.:    23.300 HEAT:  32.40606
 CYCLE:    13 TIME:   0.047 TIME LEFT:  2.00D  GRAD.:     9.005 HEAT:  32.39349
 CYCLE:    14 TIME:   0.047 TIME LEFT:  2.00D  GRAD.:     5.993 HEAT:  32.38801

     TRUST RADIUS NOW LESS THAN  0.00010 OPTIMIZATION TERMINATING
      THE GEOMETRY MAY NOT BE COMPLETELY OPTIMIZED
      (TO CONTINUE, ADD 'LET DDMIN=0.0' TO THE KEYWORD LINE)

          VARIABLE        FUNCTION
 :         0.02000       32.388012
 eps=78.4 HTML(nores) symmetry  step=-0.01 points=10
 Using a a symmetry-defined dummy atom to locate the transition state for the reaction [CHO-CH-CH3]^(-) + [C5H5N-CH3]^(+) => CHO-CH=CH2 + C5H6N-CH3
 (Second attempt - search from -0.05 to +0.05 Angstroms)
  O(HETATM    1  O   HET A   1)  -1.89676514 +1   -0.6545650 +1   -0.1072129 +1
  C(HETATM    2  C   HET B   2)   1.78011607 +1   -1.1732681 +1    0.0106810 +1
  C(HETATM    3  C   HET C   1)  -1.92791739 +1    0.5687343 +1    0.0758918 +1
  C(HETATM    4  C1  HET D   2)   0.77236504 +1    0.5137220 +1    1.3795591 +1
  N(HETATM    5  N   HET D   2)   1.06985263 +1   -0.8105179 +1    1.1408846 +1
  C(HETATM    6  C2  HET D   2)   1.13171667 +1    1.4875510 +1    0.4856798 +1
  C(HETATM    7  C3  HET D   2)   1.69352905 +1    1.1312197 +1   -0.7990697 +1
  C(HETATM    8  C4  HET D   2)   2.15313830 +1   -0.2388098 +1   -0.9105626 +1
  H(HETATM    9  H   HET E   1)  -2.39729001 +1    0.9099233 +1    1.0119200 +1
  C(HETATM   10  C   HET F   2)   0.55557628 +1   -1.8403299 +1    2.0459537 +1
 XX(HETATM   11 XX   HET K   1)   1.39108079 +1  103.2666333 +1   97.1950729 +1     7     6     4
  H(HETATM   11 1H1  HET K   1)   0.02000000 -1  180.0000000 +0    0.0000000 +0    11     7     6
  H(HETATM   12 2H1  HET K   1)  -0.80029101 +1    0.1427146 +1   -2.3509194 +1
  H(HETATM   13 3H1  HET K   1)  -0.66590055 +1    1.8979178 +1   -2.8181096 +1
  H(HETATM   14  H2  HET K   1)  -1.56426130 +1    2.5767798 +1   -0.5900061 +1
  H(HETATM   15  H1  HET D   2)   0.26311959 +1    0.7414917 +1    2.3260935 +1
  H(HETATM   16  H2  HET D   2)   0.95438835 +1    2.5358343 +1    0.7083753 +1
  H(HETATM   17  H3  HET D   2)   2.24728552 +1    1.9045627 +1   -1.3493776 +1
  H(HETATM   18  H4  HET D   2)   2.76421319 +1   -0.5121602 +1   -1.7661393 +1
  H(HETATM   19 1H   HET F   2)   0.64329833 +1   -1.5233134 +1    3.1023618 +1
  H(HETATM   20 2H   HET F   2)   1.11345464 +1   -2.7890390 +1    1.9393657 +1
  H(HETATM   21 3H   HET F   2)  -0.51295284 +1   -2.0452100 +1    1.8330585 +1
  C(HETATM   22  C1  HET K   1)   1.39108079 +0  156.5502746 +1  -21.1736295 +1    11     7     6
  C(HETATM   23  C2  HET K   1)  -1.44614761 +1    1.5307732 +1   -0.8389017 +1
  H(HETATM   24  H   HET B   2)   2.04125697 +1   -2.2353539 +1   -0.0853639 +1
 
  11  1   23
 

          Geometry optimization using EF

          DIAGONAL MATRIX USED AS START HESSIAN

 CYCLE:     1 TIME:   0.016 TIME LEFT:  2.00D  GRAD.:    21.607 HEAT:  32.34287
 CYCLE:     2 TIME:   0.156 TIME LEFT:  2.00D  GRAD.:    10.191 HEAT:  32.33686
 CYCLE:     3 TIME:   0.016 TIME LEFT:  2.00D  GRAD.:     7.434 HEAT:  32.32942
 CYCLE:     4 TIME:   0.031 TIME LEFT:  2.00D  GRAD.:     7.278 HEAT:  32.32310
 CYCLE:     5 TIME:   0.031 TIME LEFT:  2.00D  GRAD.:     5.073 HEAT:  32.31794
 CYCLE:     6 TIME:   0.016 TIME LEFT:  2.00D  GRAD.:     3.955 HEAT:  32.31050
 CYCLE:     7 TIME:   0.031 TIME LEFT:  2.00D  GRAD.:     4.331 HEAT:  32.29642
 CYCLE:     8 TIME:   0.016 TIME LEFT:  2.00D  GRAD.:     5.077 HEAT:  32.27172
 CYCLE:     9 TIME:   0.047 TIME LEFT:  2.00D  GRAD.:     8.720 HEAT:  32.25449
 CYCLE:    10 TIME:   0.031 TIME LEFT:  2.00D  GRAD.:     5.582 HEAT:  32.23881
 CYCLE:    11 TIME:   0.062 TIME LEFT:  2.00D  GRAD.:    10.185 HEAT:  32.23372
 CYCLE:    12 TIME:   0.016 TIME LEFT:  2.00D  GRAD.:     4.835 HEAT:  32.23177
 CYCLE:    13 TIME:   0.031 TIME LEFT:  2.00D  GRAD.:    11.252 HEAT:  32.22425
 CYCLE:    14 TIME:   0.031 TIME LEFT:  2.00D  GRAD.:     3.830 HEAT:  32.20692
 CYCLE:    15 TIME:   0.016 TIME LEFT:  2.00D  GRAD.:    15.227 HEAT:  32.20285
 CYCLE:    16 TIME:   0.031 TIME LEFT:  2.00D  GRAD.:     7.321 HEAT:  32.18819
 CYCLE:    17 TIME:   0.062 TIME LEFT:  2.00D  GRAD.:    13.172 HEAT:  32.18446
 CYCLE:    18 TIME:   0.047 TIME LEFT:  2.00D  GRAD.:     2.629 HEAT:  32.19348
 CYCLE:    19 TIME:   0.062 TIME LEFT:  2.00D  GRAD.:     1.786 HEAT:  32.17147

     TRUST RADIUS NOW LESS THAN  0.00010 OPTIMIZATION TERMINATING
      THE GEOMETRY MAY NOT BE COMPLETELY OPTIMIZED
      (TO CONTINUE, ADD 'LET DDMIN=0.0' TO THE KEYWORD LINE)

          VARIABLE        FUNCTION
 :         0.01000       32.171473
 eps=78.4 HTML(nores) symmetry  step=-0.01 points=10
 Using a a symmetry-defined dummy atom to locate the transition state for the reaction [CHO-CH-CH3]^(-) + [C5H5N-CH3]^(+) => CHO-CH=CH2 + C5H6N-CH3
 (Second attempt - search from -0.05 to +0.05 Angstroms)
  O(HETATM    1  O   HET A   1)  -1.91773086 +1   -0.6507491 +1   -0.1171603 +1
  C(HETATM    2  C   HET B   2)   1.78078200 +1   -1.1745572 +1    0.0085792 +1
  C(HETATM    3  C   HET C   1)  -1.93793493 +1    0.5678054 +1    0.0771619 +1
  C(HETATM    4  C1  HET D   2)   0.77343988 +1    0.5168873 +1    1.3772302 +1
  N(HETATM    5  N   HET D   2)   1.07910887 +1   -0.8089560 +1    1.1456475 +1
  C(HETATM    6  C2  HET D   2)   1.12446169 +1    1.4861541 +1    0.4809198 +1
  C(HETATM    7  C3  HET D   2)   1.68405588 +1    1.1284631 +1   -0.8091125 +1
  C(HETATM    8  C4  HET D   2)   2.14411691 +1   -0.2458043 +1   -0.9181054 +1
  H(HETATM    9  H   HET E   1)  -2.38733154 +1    0.9083314 +1    1.0241211 +1
  C(HETATM   10  C   HET F   2)   0.55676920 +1   -1.8379929 +1    2.0454106 +1
 XX(HETATM   11 XX   HET K   1)   1.39065570 +1  103.6248638 +1   97.5418492 +1     7     6     4
  H(HETATM   11 1H1  HET K   1)   0.01000000 -1  180.0000000 +0    0.0000000 +0    11     7     6
  H(HETATM   12 2H1  HET K   1)  -0.79612079 +1    0.1414056 +1   -2.3409387 +1
  H(HETATM   13 3H1  HET K   1)  -0.64401703 +1    1.9001355 +1   -2.8095509 +1
  H(HETATM   14  H2  HET K   1)  -1.58289321 +1    2.5789709 +1   -0.5922149 +1
  H(HETATM   15  H1  HET D   2)   0.27312456 +1    0.7449532 +1    2.3283421 +1
  H(HETATM   16  H2  HET D   2)   0.95452949 +1    2.5360809 +1    0.6979392 +1
  H(HETATM   17  H3  HET D   2)   2.27180112 +1    1.8948220 +1   -1.3308717 +1
  H(HETATM   18  H4  HET D   2)   2.75987555 +1   -0.5149477 +1   -1.7710262 +1
  H(HETATM   19 1H   HET F   2)   0.64094702 +1   -1.5228196 +1    3.1026640 +1
  H(HETATM   20 2H   HET F   2)   1.11219917 +1   -2.7880755 +1    1.9387499 +1
  H(HETATM   21 3H   HET F   2)  -0.51106419 +1   -2.0399477 +1    1.8282809 +1
  C(HETATM   22  C1  HET K   1)   1.39065570 +0  155.5871538 +1  -20.2943544 +1    11     7     6
  C(HETATM   23  C2  HET K   1)  -1.45529069 +1    1.5338859 +1   -0.8433062 +1
  H(HETATM   24  H   HET B   2)   2.04895651 +1   -2.2353878 +1   -0.0785976 +1
 
  11  1   23
 

          Geometry optimization using EF

          DIAGONAL MATRIX USED AS START HESSIAN

 CYCLE:     1 TIME:   0.047 TIME LEFT:  2.00D  GRAD.:    21.538 HEAT:  31.94417
 CYCLE:     2 TIME:   0.141 TIME LEFT:  2.00D  GRAD.:    28.628 HEAT:  31.93533
 CYCLE:     3 TIME:   0.031 TIME LEFT:  2.00D  GRAD.:    11.340 HEAT:  31.92136
 CYCLE:     4 TIME:   0.016 TIME LEFT:  2.00D  GRAD.:    19.753 HEAT:  31.90789
 CYCLE:     5 TIME:   0.047 TIME LEFT:  2.00D  GRAD.:     5.911 HEAT:  31.89380
 CYCLE:     6 TIME:   0.125 TIME LEFT:  2.00D  GRAD.:     4.589 HEAT:  31.89289

     TRUST RADIUS NOW LESS THAN  0.00010 OPTIMIZATION TERMINATING
      THE GEOMETRY MAY NOT BE COMPLETELY OPTIMIZED
      (TO CONTINUE, ADD 'LET DDMIN=0.0' TO THE KEYWORD LINE)

          VARIABLE        FUNCTION
 :        -0.00000       31.892884
 eps=78.4 HTML(nores) symmetry  step=-0.01 points=10
 Using a a symmetry-defined dummy atom to locate the transition state for the reaction [CHO-CH-CH3]^(-) + [C5H5N-CH3]^(+) => CHO-CH=CH2 + C5H6N-CH3
 (Second attempt - search from -0.05 to +0.05 Angstroms)
  O(HETATM    1  O   HET A   1)  -1.91816505 +1   -0.6501776 +1   -0.1173887 +1
  C(HETATM    2  C   HET B   2)   1.78124140 +1   -1.1746095 +1    0.0080222 +1
  C(HETATM    3  C   HET C   1)  -1.93844101 +1    0.5664427 +1    0.0781646 +1
  C(HETATM    4  C1  HET D   2)   0.77388858 +1    0.5177119 +1    1.3773592 +1
  N(HETATM    5  N   HET D   2)   1.07930215 +1   -0.8092891 +1    1.1461350 +1
  C(HETATM    6  C2  HET D   2)   1.12391640 +1    1.4861767 +1    0.4819495 +1
  C(HETATM    7  C3  HET D   2)   1.68241865 +1    1.1288885 +1   -0.8112921 +1
  C(HETATM    8  C4  HET D   2)   2.14466978 +1   -0.2468187 +1   -0.9177940 +1
  H(HETATM    9  H   HET E   1)  -2.38718783 +1    0.9084172 +1    1.0242241 +1
  C(HETATM   10  C   HET F   2)   0.55662787 +1   -1.8380576 +1    2.0454758 +1
 XX(HETATM   11 XX   HET K   1)   1.39319902 +1  103.6222294 +1   97.5097386 +1     7     6     4
  H(HETATM   11 1H1  HET K   1)  -0.00000000 -1  180.0000000 +0    0.0000000 +0    11     7     6
  H(HETATM   12 2H1  HET K   1)  -0.79572593 +1    0.1416574 +1   -2.3406741 +1
  H(HETATM   13 3H1  HET K   1)  -0.64355020 +1    1.9001515 +1   -2.8091554 +1
  H(HETATM   14  H2  HET K   1)  -1.58319077 +1    2.5792335 +1   -0.5920878 +1
  H(HETATM   15  H1  HET D   2)   0.27329985 +1    0.7449261 +1    2.3282606 +1
  H(HETATM   16  H2  HET D   2)   0.95438690 +1    2.5359883 +1    0.6979043 +1
  H(HETATM   17  H3  HET D   2)   2.27223721 +1    1.8947626 +1   -1.3304915 +1
  H(HETATM   18  H4  HET D   2)   2.75966801 +1   -0.5151061 +1   -1.7710731 +1
  H(HETATM   19 1H   HET F   2)   0.64090576 +1   -1.5228090 +1    3.1025987 +1
  H(HETATM   20 2H   HET F   2)   1.11216367 +1   -2.7880143 +1    1.9387601 +1
  H(HETATM   21 3H   HET F   2)  -0.51107558 +1   -2.0399565 +1    1.8283188 +1
  C(HETATM   22  C1  HET K   1)   1.39319902 +0  155.5960623 +1  -20.2941872 +1    11     7     6
  C(HETATM   23  C2  HET K   1)  -1.45454809 +1    1.5344700 +1   -0.8445326 +1
  H(HETATM   24  H   HET B   2)   2.04894282 +1   -2.2353308 +1   -0.0785215 +1
 
  11  1   23
 

          Geometry optimization using EF

          DIAGONAL MATRIX USED AS START HESSIAN

 CYCLE:     1 TIME:   0.031 TIME LEFT:  2.00D  GRAD.:    20.841 HEAT:  31.58851
 CYCLE:     2 TIME:   0.125 TIME LEFT:  2.00D  GRAD.:    25.749 HEAT:  31.58564
 CYCLE:     3 TIME:   0.031 TIME LEFT:  2.00D  GRAD.:    13.607 HEAT:  31.56692
 CYCLE:     4 TIME:   0.016 TIME LEFT:  2.00D  GRAD.:    16.553 HEAT:  31.55396
 CYCLE:     5 TIME:   0.043 TIME LEFT:  2.00D  GRAD.:     8.498 HEAT:  31.54683
 CYCLE:     6 TIME:   0.098 TIME LEFT:  2.00D  GRAD.:     7.117 HEAT:  31.54499

     TRUST RADIUS NOW LESS THAN  0.00010 OPTIMIZATION TERMINATING
      THE GEOMETRY MAY NOT BE COMPLETELY OPTIMIZED
      (TO CONTINUE, ADD 'LET DDMIN=0.0' TO THE KEYWORD LINE)

          VARIABLE        FUNCTION
 :        -0.01000       31.544985
 eps=78.4 HTML(nores) symmetry  step=-0.01 points=10
 Using a a symmetry-defined dummy atom to locate the transition state for the reaction [CHO-CH-CH3]^(-) + [C5H5N-CH3]^(+) => CHO-CH=CH2 + C5H6N-CH3
 (Second attempt - search from -0.05 to +0.05 Angstroms)
  O(HETATM    1  O   HET A   1)  -1.91853159 +1   -0.6496738 +1   -0.1177062 +1
  C(HETATM    2  C   HET B   2)   1.78168632 +1   -1.1746958 +1    0.0075241 +1
  C(HETATM    3  C   HET C   1)  -1.93901945 +1    0.5649515 +1    0.0793140 +1
  C(HETATM    4  C1  HET D   2)   0.77434335 +1    0.5185624 +1    1.3775468 +1
  N(HETATM    5  N   HET D   2)   1.07969786 +1   -0.8096226 +1    1.1466584 +1
  C(HETATM    6  C2  HET D   2)   1.12318039 +1    1.4862601 +1    0.4828779 +1
  C(HETATM    7  C3  HET D   2)   1.68051806 +1    1.1293422 +1   -0.8137892 +1
  C(HETATM    8  C4  HET D   2)   2.14526252 +1   -0.2478392 +1   -0.9176203 +1
  H(HETATM    9  H   HET E   1)  -2.38709810 +1    0.9085632 +1    1.0245145 +1
  C(HETATM   10  C   HET F   2)   0.55642329 +1   -1.8381394 +1    2.0454999 +1
 XX(HETATM   11 XX   HET K   1)   1.39571180 +1  103.6276758 +1   97.4712089 +1     7     6     4
  H(HETATM   11 1H1  HET K   1)  -0.01000000 -1  180.0000000 +0    0.0000000 +0    11     7     6
  H(HETATM   12 2H1  HET K   1)  -0.79528018 +1    0.1417741 +1   -2.3404148 +1
  H(HETATM   13 3H1  HET K   1)  -0.64292342 +1    1.9002560 +1   -2.8088325 +1
  H(HETATM   14  H2  HET K   1)  -1.58349249 +1    2.5796351 +1   -0.5918660 +1
  H(HETATM   15  H1  HET D   2)   0.27349545 +1    0.7448827 +1    2.3282187 +1
  H(HETATM   16  H2  HET D   2)   0.95428836 +1    2.5359217 +1    0.6978777 +1
  H(HETATM   17  H3  HET D   2)   2.27293281 +1    1.8946485 +1   -1.3298604 +1
  H(HETATM   18  H4  HET D   2)   2.75954019 +1   -0.5152320 +1   -1.7710913 +1
  H(HETATM   19 1H   HET F   2)   0.64086208 +1   -1.5227955 +1    3.1025416 +1
  H(HETATM   20 2H   HET F   2)   1.11212373 +1   -2.7879563 +1    1.9387586 +1
  H(HETATM   21 3H   HET F   2)  -0.51108226 +1   -2.0399843 +1    1.8283722 +1
  C(HETATM   22  C1  HET K   1)   1.39571180 +0  155.6055346 +1  -20.2955644 +1    11     7     6
  C(HETATM   23  C2  HET K   1)  -1.45407375 +1    1.5350837 +1   -0.8459276 +1
  H(HETATM   24  H   HET B   2)   2.04893141 +1   -2.2352849 +1   -0.0784339 +1
 
  11  1   23
 

          Geometry optimization using EF

          DIAGONAL MATRIX USED AS START HESSIAN

 CYCLE:     1 TIME:   0.035 TIME LEFT:  2.00D  GRAD.:    20.970 HEAT:  31.16656
 CYCLE:     2 TIME:   0.121 TIME LEFT:  2.00D  GRAD.:    26.325 HEAT:  31.16057
 CYCLE:     3 TIME:   0.016 TIME LEFT:  2.00D  GRAD.:    14.770 HEAT:  31.13910
 CYCLE:     4 TIME:   0.020 TIME LEFT:  2.00D  GRAD.:    16.934 HEAT:  31.12317
 CYCLE:     5 TIME:   0.078 TIME LEFT:  2.00D  GRAD.:    11.379 HEAT:  31.11484

     TRUST RADIUS NOW LESS THAN  0.00010 OPTIMIZATION TERMINATING
      THE GEOMETRY MAY NOT BE COMPLETELY OPTIMIZED
      (TO CONTINUE, ADD 'LET DDMIN=0.0' TO THE KEYWORD LINE)

          VARIABLE        FUNCTION
 :        -0.02000       31.114789
 eps=78.4 HTML(nores) symmetry  step=-0.01 points=10
 Using a a symmetry-defined dummy atom to locate the transition state for the reaction [CHO-CH-CH3]^(-) + [C5H5N-CH3]^(+) => CHO-CH=CH2 + C5H6N-CH3
 (Second attempt - search from -0.05 to +0.05 Angstroms)
  O(HETATM    1  O   HET A   1)  -1.91883701 +1   -0.6492494 +1   -0.1180336 +1
  C(HETATM    2  C   HET B   2)   1.78210071 +1   -1.1747698 +1    0.0070671 +1
  C(HETATM    3  C   HET C   1)  -1.93959468 +1    0.5635430 +1    0.0804337 +1
  C(HETATM    4  C1  HET D   2)   0.77465859 +1    0.5193561 +1    1.3776817 +1
  N(HETATM    5  N   HET D   2)   1.08016495 +1   -0.8099167 +1    1.1471832 +1
  C(HETATM    6  C2  HET D   2)   1.12249176 +1    1.4863545 +1    0.4837162 +1
  C(HETATM    7  C3  HET D   2)   1.67867707 +1    1.1297886 +1   -0.8163279 +1
  C(HETATM    8  C4  HET D   2)   2.14580448 +1   -0.2487808 +1   -0.9174987 +1
  H(HETATM    9  H   HET E   1)  -2.38703649 +1    0.9087208 +1    1.0248763 +1
  C(HETATM   10  C   HET F   2)   0.55621964 +1   -1.8382182 +1    2.0455051 +1
 XX(HETATM   11 XX   HET K   1)   1.39812336 +1  103.6474406 +1   97.4414730 +1     7     6     4
  H(HETATM   11 1H1  HET K   1)  -0.02000000 -1  180.0000000 +0    0.0000000 +0    11     7     6
  H(HETATM   12 2H1  HET K   1)  -0.79484915 +1    0.1418040 +1   -2.3401746 +1
  H(HETATM   13 3H1  HET K   1)  -0.64226179 +1    1.9003649 +1   -2.8085317 +1
  H(HETATM   14  H2  HET K   1)  -1.58377484 +1    2.5800608 +1   -0.5916200 +1
  H(HETATM   15  H1  HET D   2)   0.27369159 +1    0.7448307 +1    2.3282062 +1
  H(HETATM   16  H2  HET D   2)   0.95421945 +1    2.5358794 +1    0.6978569 +1
  H(HETATM   17  H3  HET D   2)   2.27373422 +1    1.8945182 +1   -1.3291323 +1
  H(HETATM   18  H4  HET D   2)   2.75947602 +1   -0.5153369 +1   -1.7711056 +1
  H(HETATM   19 1H   HET F   2)   0.64081693 +1   -1.5227813 +1    3.1024856 +1
  H(HETATM   20 2H   HET F   2)   1.11208217 +1   -2.7879038 +1    1.9387512 +1
  H(HETATM   21 3H   HET F   2)  -0.51109354 +1   -2.0400187 +1    1.8284253 +1
  C(HETATM   22  C1  HET K   1)   1.39812336 +0  155.6224009 +1  -20.2964549 +1    11     7     6
  C(HETATM   23  C2  HET K   1)  -1.45383092 +1    1.5356622 +1   -0.8472585 +1
  H(HETATM   24  H   HET B   2)   2.04892545 +1   -2.2352504 +1   -0.0783437 +1
 
  11  1   23
 

          Geometry optimization using EF

          DIAGONAL MATRIX USED AS START HESSIAN

 CYCLE:     1 TIME:   0.031 TIME LEFT:  2.00D  GRAD.:    23.951 HEAT:  30.66759
 CYCLE:     2 TIME:   0.188 TIME LEFT:  2.00D  GRAD.:    20.276 HEAT:  30.66217

     TRUST RADIUS NOW LESS THAN  0.00010 OPTIMIZATION TERMINATING
      THE GEOMETRY MAY NOT BE COMPLETELY OPTIMIZED
      (TO CONTINUE, ADD 'LET DDMIN=0.0' TO THE KEYWORD LINE)

          VARIABLE        FUNCTION
 :        -0.03000       30.662165
 eps=78.4 HTML(nores) symmetry  step=-0.01 points=10
 Using a a symmetry-defined dummy atom to locate the transition state for the reaction [CHO-CH-CH3]^(-) + [C5H5N-CH3]^(+) => CHO-CH=CH2 + C5H6N-CH3
 (Second attempt - search from -0.05 to +0.05 Angstroms)
  O(HETATM    1  O   HET A   1)  -1.91884491 +1   -0.6492377 +1   -0.1180425 +1
  C(HETATM    2  C   HET B   2)   1.78211284 +1   -1.1747709 +1    0.0070536 +1
  C(HETATM    3  C   HET C   1)  -1.93961043 +1    0.5635031 +1    0.0804623 +1
  C(HETATM    4  C1  HET D   2)   0.77469881 +1    0.5193801 +1    1.3776982 +1
  N(HETATM    5  N   HET D   2)   1.08017944 +1   -0.8099249 +1    1.1471986 +1
  C(HETATM    6  C2  HET D   2)   1.12249963 +1    1.4863537 +1    0.4837528 +1
  C(HETATM    7  C3  HET D   2)   1.67853629 +1    1.1298002 +1   -0.8163866 +1
  C(HETATM    8  C4  HET D   2)   2.14582117 +1   -0.2488096 +1   -0.9174946 +1
  H(HETATM    9  H   HET E   1)  -2.38703511 +1    0.9087254 +1    1.0248872 +1
  C(HETATM   10  C   HET F   2)   0.55621363 +1   -1.8382202 +1    2.0455049 +1
 XX(HETATM   11 XX   HET K   1)   1.39820380 +1  103.6412700 +1   97.4382734 +1     7     6     4
  H(HETATM   11 1H1  HET K   1)  -0.03000000 -1  180.0000000 +0    0.0000000 +0    11     7     6
  H(HETATM   12 2H1  HET K   1)  -0.79483475 +1    0.1418065 +1   -2.3401692 +1
  H(HETATM   13 3H1  HET K   1)  -0.64223905 +1    1.9003755 +1   -2.8085322 +1
  H(HETATM   14  H2  HET K   1)  -1.58378248 +1    2.5800724 +1   -0.5916132 +1
  H(HETATM   15  H1  HET D   2)   0.27369712 +1    0.7448292 +1    2.3282059 +1
  H(HETATM   16  H2  HET D   2)   0.95421792 +1    2.5358784 +1    0.6978563 +1
  H(HETATM   17  H3  HET D   2)   2.27376144 +1    1.8945155 +1   -1.3291106 +1
  H(HETATM   18  H4  HET D   2)   2.75947514 +1   -0.5153397 +1   -1.7711060 +1
  H(HETATM   19 1H   HET F   2)   0.64081568 +1   -1.5227810 +1    3.1024840 +1
  H(HETATM   20 2H   HET F   2)   1.11208091 +1   -2.7879024 +1    1.9387509 +1
  H(HETATM   21 3H   HET F   2)  -0.51109396 +1   -2.0400197 +1    1.8284267 +1
  C(HETATM   22  C1  HET K   1)   1.39820380 +0  155.6194095 +1  -20.2964761 +1    11     7     6
  C(HETATM   23  C2  HET K   1)  -1.45381007 +1    1.5356729 +1   -0.8473234 +1
  H(HETATM   24  H   HET B   2)   2.04892531 +1   -2.2352495 +1   -0.0783412 +1
 
  11  1   23
 

          Geometry optimization using EF

          DIAGONAL MATRIX USED AS START HESSIAN

 CYCLE:     1 TIME:   0.031 TIME LEFT:  2.00D  GRAD.:    33.911 HEAT:  30.20760
 CYCLE:     2 TIME:   0.125 TIME LEFT:  2.00D  GRAD.:    40.689 HEAT:  30.17458
 CYCLE:     3 TIME:   0.016 TIME LEFT:  2.00D  GRAD.:    25.649 HEAT:  30.11739
 CYCLE:     4 TIME:   0.031 TIME LEFT:  2.00D  GRAD.:    26.432 HEAT:  30.07333
 CYCLE:     5 TIME:   0.031 TIME LEFT:  2.00D  GRAD.:    26.311 HEAT:  30.00542
 CYCLE:     6 TIME:   0.062 TIME LEFT:  2.00D  GRAD.:    11.481 HEAT:  29.99950
 CYCLE:     7 TIME:   0.047 TIME LEFT:  2.00D  GRAD.:     8.216 HEAT:  29.99068

     TRUST RADIUS NOW LESS THAN  0.00010 OPTIMIZATION TERMINATING
      THE GEOMETRY MAY NOT BE COMPLETELY OPTIMIZED
      (TO CONTINUE, ADD 'LET DDMIN=0.0' TO THE KEYWORD LINE)

          VARIABLE        FUNCTION
 :        -0.04000       29.990683
 eps=78.4 HTML(nores) symmetry  step=-0.01 points=10
 Using a a symmetry-defined dummy atom to locate the transition state for the reaction [CHO-CH-CH3]^(-) + [C5H5N-CH3]^(+) => CHO-CH=CH2 + C5H6N-CH3
 (Second attempt - search from -0.05 to +0.05 Angstroms)
  O(HETATM    1  O   HET A   1)  -1.91962632 +1   -0.6485608 +1   -0.1191854 +1
  C(HETATM    2  C   HET B   2)   1.78310633 +1   -1.1751404 +1    0.0060366 +1
  C(HETATM    3  C   HET C   1)  -1.94116220 +1    0.5600627 +1    0.0837267 +1
  C(HETATM    4  C1  HET D   2)   0.77578778 +1    0.5213911 +1    1.3784117 +1
  N(HETATM    5  N   HET D   2)   1.08195838 +1   -0.8105749 +1    1.1488300 +1
  C(HETATM    6  C2  HET D   2)   1.12057044 +1    1.4867030 +1    0.4851708 +1
  C(HETATM    7  C3  HET D   2)   1.67308977 +1    1.1307165 +1   -0.8237226 +1
  C(HETATM    8  C4  HET D   2)   2.14715681 +1   -0.2510190 +1   -0.9175462 +1
  H(HETATM    9  H   HET E   1)  -2.38691804 +1    0.9092521 +1    1.0263583 +1
  C(HETATM   10  C   HET F   2)   0.55561588 +1   -1.8384650 +1    2.0454710 +1
 XX(HETATM   11 XX   HET K   1)   1.40439364 +1  103.7092653 +1   97.3115232 +1     7     6     4
  H(HETATM   11 1H1  HET K   1)  -0.04000000 -1  180.0000000 +0    0.0000000 +0    11     7     6
  H(HETATM   12 2H1  HET K   1)  -0.79370280 +1    0.1416031 +1   -2.3395842 +1
  H(HETATM   13 3H1  HET K   1)  -0.64019707 +1    1.9009590 +1   -2.8079711 +1
  H(HETATM   14  H2  HET K   1)  -1.58454610 +1    2.5814679 +1   -0.5906644 +1
  H(HETATM   15  H1  HET D   2)   0.27429925 +1    0.7446621 +1    2.3283003 +1
  H(HETATM   16  H2  HET D   2)   0.95409232 +1    2.5358673 +1    0.6978035 +1
  H(HETATM   17  H3  HET D   2)   2.27657227 +1    1.8940578 +1   -1.3263714 +1
  H(HETATM   18  H4  HET D   2)   2.75952289 +1   -0.5156545 +1   -1.7711802 +1
  H(HETATM   19 1H   HET F   2)   0.64066211 +1   -1.5227477 +1    3.1023022 +1
  H(HETATM   20 2H   HET F   2)   1.11193996 +1   -2.7877696 +1    1.9387131 +1
  H(HETATM   21 3H   HET F   2)  -0.51116980 +1   -2.0401469 +1    1.8285891 +1
  C(HETATM   22  C1  HET K   1)   1.40439364 +0  155.6631727 +1  -20.3062719 +1    11     7     6
  C(HETATM   23  C2  HET K   1)  -1.45424349 +1    1.5371814 +1   -0.8513074 +1
  H(HETATM   24  H   HET B   2)   2.04897622 +1   -2.2351877 +1   -0.0780185 +1
 
  11  1   23
 

                POINTS ON REACTION PATH 
                AND CORRESPONDING HEATS


       0.05000000       0.04000000       0.03000000       0.02000000       0.01000000      -0.00000000      -0.01000000      -0.02000000
      31.69078206      32.02574769      32.27569657      32.38801215      32.17147282      31.89288422      31.54498481      31.11478942
      -0.03000000      -0.04000000
      30.66216511      29.99068317

 **********************
 *                    *
 * JOB ENDED NORMALLY *
 *                    *
 **********************



 TOTAL JOB TIME:             9.56 SECONDS

 == MOPAC DONE ==
