 *******************************************************************************
 ** Site#: 9602  E-mail support:    MrMOPAC@ATT.net    Version 18.053W 64BITS **
 *******************************************************************************
 ** Cite this program as: MOPAC2016, Version: 18.053W, James J. P. Stewart,   **
 ** Stewart Computational Chemistry, web: HTTP://OpenMOPAC.net. Days left: 174**
 *******************************************************************************
 **                                                                           **
 **                                MOPAC2016                                  **
 **                                                                           **
 *******************************************************************************

                              PM7 CALCULATION RESULTS


 *******************************************************************************
 *  CALCULATION DONE:                                Thu Feb 22 21:17:13 2018  *
 *  EPS= 78.40 - USE ANDREAS KLAMT'S COSMO IMPLICIT SOLVATION MODEL
 *  XYZ        - CARTESIAN COORDINATE SYSTEM TO BE USED
 *  TS         - USE EF ROUTINE FOR TS SEARCH
 *  T=         - A TIME OF 172800.0 SECONDS REQUESTED
 *  DUMP=N     - RESTART FILE WRITTEN EVERY  7200.000 SECONDS
 *  HTML       - WRITE HTML SCRIPT TO READ PDB FILE USING JSMOL
 *  HTML(NORES)- SUPPRESS LIST OF RESIDUES IN HTML FILE
 *******************************************************************************
 eps=78.4 HTML(nores) TS xyz
 Refine the transition state for the reaction [CHO-CH-CH3]^(-) + [C5H5N-CH3]^(+) => CHO-CH=CH2 + C5H6N-CH3

   ATOM                 CHEMICAL                   X               Y               Z
  NUMBER                 SYMBOL               (ANGSTROMS)     (ANGSTROMS)     (ANGSTROMS)
 
     1       O(HETATM    1  O   HET A   1)   -1.89676514  *  -0.65456500  *  -0.10721290  *
     2       C(HETATM    2  C   HET B   2)    1.78011607  *  -1.17326810  *   0.01068100  *
     3       C(HETATM    3  C   HET C   1)   -1.92791739  *   0.56873430  *   0.07589180  *
     4       C(HETATM    4  C1  HET D   2)    0.77236504  *   0.51372200  *   1.37955910  *
     5       N(HETATM    5  N   HET D   2)    1.06985263  *  -0.81051790  *   1.14088460  *
     6       C(HETATM    6  C2  HET D   2)    1.13171667  *   1.48755100  *   0.48567980  *
     7       C(HETATM    7  C3  HET D   2)    1.69352905  *   1.13121970  *  -0.79906970  *
     8       C(HETATM    8  C4  HET D   2)    2.15313830  *  -0.23880980  *  -0.91056260  *
     9       H(HETATM    9  H   HET E   1)   -2.39729001  *   0.90992330  *   1.01192000  *
    10       C(HETATM   10  C   HET F   2)    0.55557628  *  -1.84032990  *   2.04595370  *
    11       H(HETATM   11 1H1  HET K   1)    0.58101544  *   1.18583486     -1.66537199   
    12       H(HETATM   12 2H1  HET K   1)   -0.80029101  *   0.14271460  *  -2.35091940  *
    13       H(HETATM   13 3H1  HET K   1)   -0.66590055  *   1.89791780  *  -2.81810960  *
    14       H(HETATM   14  H2  HET K   1)   -1.56426130  *   2.57677980  *  -0.59000610  *
    15       H(HETATM   15  H1  HET D   2)    0.26311959  *   0.74149170  *   2.32609350  *
    16       H(HETATM   16  H2  HET D   2)    0.95438835  *   2.53583430  *   0.70837530  *
    17       H(HETATM   17  H3  HET D   2)    2.24728552  *   1.90456270  *  -1.34937760  *
    18       H(HETATM   18  H4  HET D   2)    2.76421319  *  -0.51216020  *  -1.76613930  *
    19       H(HETATM   19 1H   HET F   2)    0.64329833  *  -1.52331340  *   3.10236180  *
    20       H(HETATM   20 2H   HET F   2)    1.11345464  *  -2.78903900  *   1.93936570  *
    21       H(HETATM   21 3H   HET F   2)   -0.51295284  *  -2.04521000  *   1.83305850  *
    22       C(HETATM   22  C1  HET K   1)   -0.74940561  *   1.17698898  *  -2.00354311  *
    23       C(HETATM   23  C2  HET K   1)   -1.44614761  *   1.53077320  *  -0.83890170  *
    24       H(HETATM   24  H   HET B   2)    2.04125697  *  -2.23535390  *  -0.08536390  *
 

 General Reference for PM7:
 "Optimization of Parameters for Semiempirical Methods VI: More Modifications to the 
 NDDO Approximations and Re-optimization of Parameters", J. J. P. Stewart, J. Mol. Mod., 1:32, 19 (2013)
 http://www.springerlink.com/openurl.asp?genre=article&id=doi:10.1007/s00894-012-1667-x

           Empirical Formula: C9 H13 N O  =    24 atoms



      MOLECULAR POINT GROUP   :   C1  


      RHF CALCULATION, NO. OF DOUBLY OCCUPIED LEVELS = 30


          Transition state refinement using EF

          HESSIAN CALCULATED NUMERICALLY

 CYCLE:     1 TIME:   1.492 TIME LEFT:  2.00D  GRAD.:     6.465 HEAT:  32.49522
 CYCLE:     2 TIME:   0.016 TIME LEFT:  2.00D  GRAD.:     6.876 HEAT:  32.40454
 CYCLE:     3 TIME:   0.078 TIME LEFT:  2.00D  GRAD.:     1.980 HEAT:  32.40259
 CYCLE:     4 TIME:   0.109 TIME LEFT:  2.00D  GRAD.:     1.197 HEAT:  32.40196
 CYCLE:     5 TIME:   0.016 TIME LEFT:  2.00D  GRAD.:     1.153 HEAT:  32.40099

     TRUST RADIUS NOW LESS THAN  0.00010 OPTIMIZATION TERMINATING
      THE GEOMETRY MAY NOT BE COMPLETELY OPTIMIZED
      (TO CONTINUE, ADD 'LET DDMIN=0.0' TO THE KEYWORD LINE)

 -------------------------------------------------------------------------------
 eps=78.4 HTML(nores) TS xyz
 Refine the transition state for the reaction [CHO-CH-CH3]^(-) + [C5H5N-CH3]^(+) => CHO-CH=CH2 + C5H6N-CH3



     GEOMETRY OPTIMISED USING EIGENVECTOR FOLLOWING (TS).     
     SCF FIELD WAS ACHIEVED                                   


                              PM7 CALCULATION
                                                       MOPAC2016 (Version: 18.053W)
                                                       Thu Feb 22 21:17:15 2018
                                                       No. of days remaining = 174




          FINAL HEAT OF FORMATION =         32.40099 KCAL/MOL =     135.56574 KJ/MOL
          VAN DER WAALS AREA      =        188.92 SQUARE ANGSTROMS


          TOTAL ENERGY            =      -1759.70393 EV
          ELECTRONIC ENERGY       =      -2782.39516 EV  POINT GROUP:     C1  
          CORE-CORE REPULSION     =       1022.69122 EV
          DIELECTRIC ENERGY       =         -0.80506 EV
          COSMO AREA              =        188.92 SQUARE ANGSTROMS
          COSMO VOLUME            =        206.28 CUBIC ANGSTROMS

          GRADIENT NORM           =          1.24855
          IONIZATION POTENTIAL    =          7.476008 EV
          HOMO LUMO ENERGIES (EV) =         -7.476 -0.943
          NO. OF FILLED LEVELS    =         30
          MOLECULAR WEIGHT        =        151.2078

          MOLECULAR DIMENSIONS (Angstroms)

            Atom       Atom       Distance
            H    19    H    13     6.96076
            H    18    H     9     5.99523
            O     1    H    16     4.17969


          SCF CALCULATIONS        =         86
 
          WALL-CLOCK TIME         =          1.820 SECONDS
          COMPUTATION TIME        =          7.036 SECONDS




   ATOM                 CHEMICAL                   X               Y               Z
  NUMBER                 SYMBOL               (ANGSTROMS)     (ANGSTROMS)     (ANGSTROMS)
 
     1       O(HETATM    1  O   HET A   1)   -1.93624944  *  -0.65604074  *  -0.16191774  *
     2       C(HETATM    2  C   HET B   2)    1.77645881  *  -1.17324337  *   0.01007118  *
     3       C(HETATM    3  C   HET C   1)   -1.95421957  *   0.56465431  *   0.04786126  *
     4       C(HETATM    4  C1  HET D   2)    0.77340133  *   0.51486880  *   1.37948742  *
     5       N(HETATM    5  N   HET D   2)    1.07083583  *  -0.80857723  *   1.14187545  *
     6       C(HETATM    6  C2  HET D   2)    1.13101080  *   1.48781463  *   0.48456906  *
     7       C(HETATM    7  C3  HET D   2)    1.69549821  *   1.13083616  *  -0.79579971  *
     8       C(HETATM    8  C4  HET D   2)    2.14555472  *  -0.23975662  *  -0.91410147  *
     9       H(HETATM    9  H   HET E   1)   -2.42485492  *   0.88583995  *   0.99060277  *
    10       C(HETATM   10  C   HET F   2)    0.55608731  *  -1.83752838  *   2.04671399  *
    11       H(HETATM   11 1H1  HET K   1)    0.58672934  *   1.18583486     -1.66537199   
    12       H(HETATM   12 2H1  HET K   1)   -0.80195844  *   0.16111564  *  -2.35703399  *
    13       H(HETATM   13 3H1  HET K   1)   -0.64693467  *   1.91985307  *  -2.80839312  *
    14       H(HETATM   14  H2  HET K   1)   -1.57136909  *   2.57988905  *  -0.57993181  *
    15       H(HETATM   15  H1  HET D   2)    0.26966112  *   0.74492251  *   2.32903915  *
    16       H(HETATM   16  H2  HET D   2)    0.95381924  *   2.53716375  *   0.70432332  *
    17       H(HETATM   17  H3  HET D   2)    2.25829351  *   1.90124937  *  -1.34107910  *
    18       H(HETATM   18  H4  HET D   2)    2.75580305  *  -0.51403062  *  -1.77086299  *
    19       H(HETATM   19 1H   HET F   2)    0.64193478  *  -1.52108111  *   3.10354308  *
    20       H(HETATM   20 2H   HET F   2)    1.11253089  *  -2.78720301  *   1.94051650  *
    21       H(HETATM   21 3H   HET F   2)   -0.51256652  *  -2.04171531  *   1.83234429  *
    22       C(HETATM   22  C1  HET K   1)   -0.74060936  *   1.19290020  *  -2.00065828  *
    23       C(HETATM   23  C2  HET K   1)   -1.45304129  *   1.53767165  *  -0.83988399  *
    24       H(HETATM   24  H   HET B   2)    2.04093713  *  -2.23513312  *  -0.08365389  *

                             CARTESIAN COORDINATES

   1    O       -1.936249436    -0.656040743    -0.161917744
   2    C        1.776458807    -1.173243369     0.010071177
   3    C       -1.954219573     0.564654306     0.047861258
   4    C        0.773401328     0.514868799     1.379487420
   5    N        1.070835826    -0.808577226     1.141875448
   6    C        1.131010802     1.487814628     0.484569056
   7    C        1.695498215     1.130836162    -0.795799714
   8    C        2.145554720    -0.239756621    -0.914101473
   9    H       -2.424854917     0.885839946     0.990602772
  10    C        0.556087305    -1.837528376     2.046713990
  11    H        0.586729340     1.185834862    -1.665371986
  12    H       -0.801958443     0.161115642    -2.357033988
  13    H       -0.646934665     1.919853065    -2.808393115
  14    H       -1.571369094     2.579889047    -0.579931811
  15    H        0.269661115     0.744922506     2.329039154
  16    H        0.953819238     2.537163750     0.704323321
  17    H        2.258293512     1.901249372    -1.341079103
  18    H        2.755803049    -0.514030623    -1.770862995
  19    H        0.641934783    -1.521081112     3.103543080
  20    H        1.112530892    -2.787203010     1.940516496
  21    H       -0.512566516    -2.041715309     1.832344289
  22    C       -0.740609358     1.192900198    -2.000658279
  23    C       -1.453041293     1.537671652    -0.839883994
  24    H        2.040937127    -2.235133119    -0.083653891


           Empirical Formula: C9 H13 N O  =    24 atoms



      MOLECULAR POINT GROUP   :   C1  


                  EIGENVALUES  
 -37.53952 -29.63679 -29.07878 -26.76367 -26.50696 -24.81020 -23.21399 -22.20351
 -22.08473 -18.37138 -18.22224 -16.78358 -16.62462 -16.40782 -16.08183 -15.11051
 -14.85583 -14.49101 -14.37020 -13.59807 -13.53202 -13.21423 -12.74417 -12.42733
 -12.35311 -12.17468 -10.60834  -9.83582  -9.54974  -7.47601  -0.94251   0.04064
   1.36786   1.56154   2.11178   3.90555   3.93815   4.49638   4.68408   4.81467
   4.91348   5.03714   5.10704   5.26537   5.29311   5.37963   5.56791   5.62992
   5.80576   5.84456   6.00963   6.09119   6.14402   6.23179   6.25635   6.58635
   6.98427


              NET ATOMIC CHARGES AND DIPOLE CONTRIBUTIONS

  ATOM NO.                 TYPE                        CHARGE      No. of ELECS.   s-Pop       p-Pop       
    1          O(HETATM    1  O   HET A   1)          -0.744085        6.7441     1.87927     4.86481
    2          C(HETATM    2  C   HET B   2)           0.048373        3.9516     1.09234     2.85929
    3          C(HETATM    3  C   HET C   1)           0.397798        3.6022     1.11224     2.48997
    4          C(HETATM    4  C1  HET D   2)           0.073152        3.9268     1.09517     2.83168
    5          N(HETATM    5  N   HET D   2)          -0.236606        5.2366     1.51055     3.72606
    6          C(HETATM    6  C2  HET D   2)          -0.291836        4.2918     1.07804     3.21380
    7          C(HETATM    7  C3  HET D   2)          -0.066987        4.0670     1.08170     2.98529
    8          C(HETATM    8  C4  HET D   2)          -0.309843        4.3098     1.07807     3.23178
    9          H(HETATM    9  H   HET E   1)           0.096688        0.9033     0.90331
   10          C(HETATM   10  C   HET F   2)          -0.269249        4.2692     1.06758     3.20167
   11          H(HETATM   11 1H1  HET K   1)           0.129469        0.8705     0.87053
   12          H(HETATM   12 2H1  HET K   1)           0.148048        0.8520     0.85195
   13          H(HETATM   13 3H1  HET K   1)           0.144581        0.8554     0.85542
   14          H(HETATM   14  H2  HET K   1)           0.156141        0.8439     0.84386
   15          H(HETATM   15  H1  HET D   2)           0.189429        0.8106     0.81057
   16          H(HETATM   16  H2  HET D   2)           0.180110        0.8199     0.81989
   17          H(HETATM   17  H3  HET D   2)           0.167804        0.8322     0.83220
   18          H(HETATM   18  H4  HET D   2)           0.180623        0.8194     0.81938
   19          H(HETATM   19 1H   HET F   2)           0.176912        0.8231     0.82309
   20          H(HETATM   20 2H   HET F   2)           0.178208        0.8218     0.82179
   21          H(HETATM   21 3H   HET F   2)           0.177024        0.8230     0.82298
   22          C(HETATM   22  C1  HET K   1)          -0.186655        4.1867     1.08838     3.09828
   23          C(HETATM   23  C2  HET K   1)          -0.529279        4.5293     1.06384     3.46544
   24          H(HETATM   24  H   HET B   2)           0.190179        0.8098     0.80982

          NET CHARGE ON RESIDUES

      Residue         Charge  Anion or
                              Cation?
      HET A   1       -0.744  ANION
      HET B   2       +0.239
      HET C   1       +0.494
      HET D   2       -0.114
      HET F   2       +0.263
      HET K   1       -0.138
 


 DIPOLE           X         Y         Z       TOTAL
 POINT-CHG.     6.217     0.591     3.333     7.079
 HYBRID         0.118    -0.393    -0.086     0.419
 SUM            6.335     0.198     3.247     7.121


          ATOMIC ORBITAL ELECTRON POPULATIONS

                   Atom                  s        px        py        pz   
   O(HETATM    1  O   HET A   1)   1.87927   1.67010   1.32941   1.86531
   C(HETATM    2  C   HET B   2)   1.09234   0.92507   1.06976   0.86446
   C(HETATM    3  C   HET C   1)   1.11224   0.74492   0.82034   0.92471
   C(HETATM    4  C1  HET D   2)   1.09517   0.95020   0.83245   1.04903
   N(HETATM    5  N   HET D   2)   1.51055   1.40207   1.10438   1.21960
   C(HETATM    6  C2  HET D   2)   1.07804   1.11033   1.08623   1.01724
   C(HETATM    7  C3  HET D   2)   1.08170   0.97685   1.02832   0.98012
   C(HETATM    8  C4  HET D   2)   1.07807   1.13326   1.00124   1.09728
   H(HETATM    9  H   HET E   1)   0.90331
   C(HETATM   10  C   HET F   2)   1.06758   1.14940   1.00545   1.04683
   H(HETATM   11 1H1  HET K   1)   0.87053
   H(HETATM   12 2H1  HET K   1)   0.85195
   H(HETATM   13 3H1  HET K   1)   0.85542
   H(HETATM   14  H2  HET K   1)   0.84386
   H(HETATM   15  H1  HET D   2)   0.81057
   H(HETATM   16  H2  HET D   2)   0.81989
   H(HETATM   17  H3  HET D   2)   0.83220
   H(HETATM   18  H4  HET D   2)   0.81938
   H(HETATM   19 1H   HET F   2)   0.82309
   H(HETATM   20 2H   HET F   2)   0.82179
   H(HETATM   21 3H   HET F   2)   0.82298
   C(HETATM   22  C1  HET K   1)   1.08838   0.91506   1.13877   1.04445
   C(HETATM   23  C2  HET K   1)   1.06384   1.26945   1.09441   1.10159
   H(HETATM   24  H   HET B   2)   0.80982
 *******************************************************************************
 ** Site#: 9602  E-mail support:    MrMOPAC@ATT.net    Version 18.053W 64BITS **
 *******************************************************************************
 ** Cite this program as: MOPAC2016, Version: 18.053W, James J. P. Stewart,   **
 ** Stewart Computational Chemistry, web: HTTP://OpenMOPAC.net. Days left: 174**
 *******************************************************************************
 **                                                                           **
 **                                MOPAC2016                                  **
 **                                                                           **
 *******************************************************************************

                              PM7 CALCULATION RESULTS


 *******************************************************************************
 *  CALCULATION DONE:                                Thu Feb 22 21:17:15 2018  *
 *  EPS= 78.40 - USE ANDREAS KLAMT'S COSMO IMPLICIT SOLVATION MODEL
 *  OLDGEO     - PREVIOUS GEOMETRY TO BE USED
 *  FORCE      - FORCE CALCULATION SPECIFIED
 *  T=         - A TIME OF 172800.0 SECONDS REQUESTED
 *  DUMP=N     - RESTART FILE WRITTEN EVERY  7200.000 SECONDS
 *  ISOTOPE    - FORCE MATRIX WRITTEN TO DISK (CHAN. 9 )
 *******************************************************************************
oldgeo force eps=78.4 isotope
 Map out the IRC for hydride migration from prop-2-enal anion to Methylpyridinium cation

   ATOM                 CHEMICAL                   X               Y               Z
  NUMBER                 SYMBOL               (ANGSTROMS)     (ANGSTROMS)     (ANGSTROMS)
 
     1       O(HETATM    1  O   HET A   1)   -1.93624944  *  -0.65604074  *  -0.16191774  *
     2       C(HETATM    2  C   HET B   2)    1.77645881  *  -1.17324337  *   0.01007118  *
     3       C(HETATM    3  C   HET C   1)   -1.95421957  *   0.56465431  *   0.04786126  *
     4       C(HETATM    4  C1  HET D   2)    0.77340133  *   0.51486880  *   1.37948742  *
     5       N(HETATM    5  N   HET D   2)    1.07083583  *  -0.80857723  *   1.14187545  *
     6       C(HETATM    6  C2  HET D   2)    1.13101080  *   1.48781463  *   0.48456906  *
     7       C(HETATM    7  C3  HET D   2)    1.69549821  *   1.13083616  *  -0.79579971  *
     8       C(HETATM    8  C4  HET D   2)    2.14555472  *  -0.23975662  *  -0.91410147  *
     9       H(HETATM    9  H   HET E   1)   -2.42485492  *   0.88583995  *   0.99060277  *
    10       C(HETATM   10  C   HET F   2)    0.55608731  *  -1.83752838  *   2.04671399  *
    11       H(HETATM   11 1H1  HET K   1)    0.58672934  *   1.18583486     -1.66537199   
    12       H(HETATM   12 2H1  HET K   1)   -0.80195844  *   0.16111564  *  -2.35703399  *
    13       H(HETATM   13 3H1  HET K   1)   -0.64693467  *   1.91985307  *  -2.80839312  *
    14       H(HETATM   14  H2  HET K   1)   -1.57136909  *   2.57988905  *  -0.57993181  *
    15       H(HETATM   15  H1  HET D   2)    0.26966112  *   0.74492251  *   2.32903915  *
    16       H(HETATM   16  H2  HET D   2)    0.95381924  *   2.53716375  *   0.70432332  *
    17       H(HETATM   17  H3  HET D   2)    2.25829351  *   1.90124937  *  -1.34107910  *
    18       H(HETATM   18  H4  HET D   2)    2.75580305  *  -0.51403062  *  -1.77086299  *
    19       H(HETATM   19 1H   HET F   2)    0.64193478  *  -1.52108111  *   3.10354308  *
    20       H(HETATM   20 2H   HET F   2)    1.11253089  *  -2.78720301  *   1.94051650  *
    21       H(HETATM   21 3H   HET F   2)   -0.51256652  *  -2.04171531  *   1.83234429  *
    22       C(HETATM   22  C1  HET K   1)   -0.74060936  *   1.19290020  *  -2.00065828  *
    23       C(HETATM   23  C2  HET K   1)   -1.45304129  *   1.53767165  *  -0.83988399  *
    24       H(HETATM   24  H   HET B   2)    2.04093713  *  -2.23513312  *  -0.08365389  *
 

 General Reference for PM7:
 "Optimization of Parameters for Semiempirical Methods VI: More Modifications to the 
 NDDO Approximations and Re-optimization of Parameters", J. J. P. Stewart, J. Mol. Mod., 1:32, 19 (2013)
 http://www.springerlink.com/openurl.asp?genre=article&id=doi:10.1007/s00894-012-1667-x

           Empirical Formula: C9 H13 N O  =    24 atoms



      MOLECULAR POINT GROUP   :   C1  


      RHF CALCULATION, NO. OF DOUBLY OCCUPIED LEVELS = 30



          HEAT OF FORMATION =      32.402797 KCALS/MOLE


          CARTESIAN COORDINATE DERIVATIVES

   NUMBER  ATOM         X            Y            Z

     1       O      0.442227    -0.031740    -0.162800
     2       C     -0.077707     0.007630     0.000224
     3       C     -0.080995     0.175646     0.056015
     4       C     -0.001611    -0.104533     0.030418
     5       N      0.044962     0.050456     0.006588
     6       C     -0.001299    -0.034026    -0.158084
     7       C      0.147305     0.017121     0.210312
     8       C     -0.021926     0.081213    -0.036752
     9       H     -0.152690    -0.317239    -0.147648
    10       C      0.038047    -0.023141    -0.110050
    11       H     -0.354261     0.351500     0.097927
    12       H     -0.035802    -0.286970     0.073341
    13       H     -0.145082    -0.181982    -0.068260
    14       H      0.007873     0.137535    -0.088974
    15       H     -0.057303    -0.019775    -0.010533
    16       H      0.010594     0.023143     0.032135
    17       H     -0.074392     0.013357    -0.048710
    18       H      0.085596     0.082636     0.022919
    19       H      0.005414    -0.014433     0.032470
    20       H     -0.042686    -0.003326    -0.037740
    21       H      0.025373     0.020139    -0.065158
    22       C      0.440195    -0.028051     0.001898
    23       C     -0.169023     0.056894     0.437390
    24       H     -0.032801     0.027943    -0.066929
 


          GRADIENT NORM =   1.20096


          TIME FOR SCF CALCULATION =    0.03

          TIME FOR DERIVATIVES     =    0.02

          MOLECULAR WEIGHT =  151.21



          ROTATIONAL CONSTANTS IN CM(-1)

          A =    0.04702449   B =    0.03425032   C =    0.02580196



           PRINCIPAL MOMENTS OF INERTIA IN UNITS OF 10**(-40)*GRAM-CM**2

          A =      595.2807   B =      817.2997   C =     1084.9087


          ORIENTATION OF MOLECULE IN FORCE CALCULATION

    NO.       ATOM         X         Y         Z

     1          O      -2.0523   -1.0782    0.0807
     2          C       1.7002   -1.0782    0.0807
     3          C      -2.2287    0.1479    0.0807
     4          C       0.5379    0.6842    1.2094
     5          N       1.0037   -0.6114    1.1802
     6          C       0.7166    1.5202    0.1396
     7          C       1.2656    1.0165   -1.0975
     8          C       1.8943   -0.2845   -1.0120
     9          H      -2.6954    0.5687    0.9854
    10          C       0.6777   -1.5204    2.2801
    11          H       0.1211    0.7740   -1.8849
    12          H      -1.1433   -0.5261   -2.2945
    13          H      -1.2530    1.1296   -3.0478
    14          H      -2.1565    2.0516   -0.9054
    15          H       0.0513    1.0131    2.1386
    16          H       0.4067    2.5606    0.1895
    17          H       1.6912    1.7432   -1.8034
    18          H       2.4967   -0.6264   -1.8498
    19          H       0.7674   -1.0128    3.2593
    20          H       1.3542   -2.3948    2.2986
    21          H      -0.3613   -1.8942    2.1781
    22          C      -1.2085    0.5519   -2.1238
    23          C      -1.9077    1.0035   -0.9920
    24          H       2.1039   -2.0973    0.1507


    FIRST DERIVATIVES WILL BE USED IN THE CALCULATION OF SECOND DERIVATIVES

          ESTIMATED TIME TO COMPLETE CALCULATION =        6.75 SECONDS

    FOR POINT-GROUP C1   THERE ARE   1 UNIQUE SYMMETRY FUNCTIONS.

 STEP:   1 TIME =     0.05 SECS, INTEGRAL =      0.05 TIME LEFT: 172799.91
 STEP:   2 TIME =     0.05 SECS, INTEGRAL =      0.09 TIME LEFT: 172799.86
 STEP:   3 TIME =     0.05 SECS, INTEGRAL =      0.14 TIME LEFT: 172799.81
 STEP:   4 TIME =     0.05 SECS, INTEGRAL =      0.19 TIME LEFT: 172799.77
 STEP:   5 TIME =     0.05 SECS, INTEGRAL =      0.23 TIME LEFT: 172799.72
 STEP:   6 TIME =     0.05 SECS, INTEGRAL =      0.28 TIME LEFT: 172799.67
 STEP:   7 TIME =     0.05 SECS, INTEGRAL =      0.33 TIME LEFT: 172799.62
 STEP:   8 TIME =     0.06 SECS, INTEGRAL =      0.39 TIME LEFT: 172799.56
 STEP:   9 TIME =     0.05 SECS, INTEGRAL =      0.44 TIME LEFT: 172799.52
 STEP:  10 TIME =     0.05 SECS, INTEGRAL =      0.48 TIME LEFT: 172799.47
 STEP:  11 TIME =     0.05 SECS, INTEGRAL =      0.53 TIME LEFT: 172799.42
 STEP:  12 TIME =     0.05 SECS, INTEGRAL =      0.58 TIME LEFT: 172799.38
 STEP:  13 TIME =     0.05 SECS, INTEGRAL =      0.62 TIME LEFT: 172799.33
 STEP:  14 TIME =     0.05 SECS, INTEGRAL =      0.67 TIME LEFT: 172799.28
 STEP:  15 TIME =     0.05 SECS, INTEGRAL =      0.72 TIME LEFT: 172799.23
 STEP:  16 TIME =     0.05 SECS, INTEGRAL =      0.77 TIME LEFT: 172799.19
 STEP:  17 TIME =     0.05 SECS, INTEGRAL =      0.81 TIME LEFT: 172799.14
 STEP:  18 TIME =     0.03 SECS, INTEGRAL =      0.84 TIME LEFT: 172799.11
 STEP:  19 TIME =     0.05 SECS, INTEGRAL =      0.89 TIME LEFT: 172799.06
 STEP:  20 TIME =     0.05 SECS, INTEGRAL =      0.94 TIME LEFT: 172799.02
 STEP:  21 TIME =     0.05 SECS, INTEGRAL =      0.98 TIME LEFT: 172798.97
 STEP:  22 TIME =     0.05 SECS, INTEGRAL =      1.03 TIME LEFT: 172798.92
 STEP:  23 TIME =     0.06 SECS, INTEGRAL =      1.09 TIME LEFT: 172798.86
 STEP:  24 TIME =     0.05 SECS, INTEGRAL =      1.14 TIME LEFT: 172798.81
 STEP:  25 TIME =     0.05 SECS, INTEGRAL =      1.19 TIME LEFT: 172798.77
 STEP:  26 TIME =     0.05 SECS, INTEGRAL =      1.23 TIME LEFT: 172798.72
 STEP:  27 TIME =     0.03 SECS, INTEGRAL =      1.27 TIME LEFT: 172798.69
 STEP:  28 TIME =     0.05 SECS, INTEGRAL =      1.31 TIME LEFT: 172798.64
 STEP:  29 TIME =     0.05 SECS, INTEGRAL =      1.36 TIME LEFT: 172798.59
 STEP:  30 TIME =     0.03 SECS, INTEGRAL =      1.39 TIME LEFT: 172798.56
 STEP:  31 TIME =     0.06 SECS, INTEGRAL =      1.45 TIME LEFT: 172798.50
 STEP:  32 TIME =     0.06 SECS, INTEGRAL =      1.52 TIME LEFT: 172798.44
 STEP:  33 TIME =     0.03 SECS, INTEGRAL =      1.55 TIME LEFT: 172798.41
 STEP:  34 TIME =     0.05 SECS, INTEGRAL =      1.59 TIME LEFT: 172798.36
 STEP:  35 TIME =     0.05 SECS, INTEGRAL =      1.64 TIME LEFT: 172798.31
 STEP:  36 TIME =     0.05 SECS, INTEGRAL =      1.69 TIME LEFT: 172798.27
 STEP:  37 TIME =     0.05 SECS, INTEGRAL =      1.73 TIME LEFT: 172798.22
 STEP:  38 TIME =     0.05 SECS, INTEGRAL =      1.78 TIME LEFT: 172798.17
 STEP:  39 TIME =     0.05 SECS, INTEGRAL =      1.83 TIME LEFT: 172798.12
 STEP:  40 TIME =     0.05 SECS, INTEGRAL =      1.88 TIME LEFT: 172798.08
 STEP:  41 TIME =     0.06 SECS, INTEGRAL =      1.94 TIME LEFT: 172798.02
 STEP:  42 TIME =     0.05 SECS, INTEGRAL =      1.98 TIME LEFT: 172797.97
 STEP:  43 TIME =     0.05 SECS, INTEGRAL =      2.03 TIME LEFT: 172797.92
 STEP:  44 TIME =     0.06 SECS, INTEGRAL =      2.09 TIME LEFT: 172797.86
 STEP:  45 TIME =     0.05 SECS, INTEGRAL =      2.14 TIME LEFT: 172797.81
 STEP:  46 TIME =     0.05 SECS, INTEGRAL =      2.19 TIME LEFT: 172797.77
 STEP:  47 TIME =     0.05 SECS, INTEGRAL =      2.23 TIME LEFT: 172797.72
 STEP:  48 TIME =     0.05 SECS, INTEGRAL =      2.28 TIME LEFT: 172797.67
 STEP:  49 TIME =     0.05 SECS, INTEGRAL =      2.33 TIME LEFT: 172797.62
 STEP:  50 TIME =     0.05 SECS, INTEGRAL =      2.38 TIME LEFT: 172797.58
 STEP:  51 TIME =     0.03 SECS, INTEGRAL =      2.41 TIME LEFT: 172797.55
 STEP:  52 TIME =     0.05 SECS, INTEGRAL =      2.45 TIME LEFT: 172797.50
 STEP:  53 TIME =     0.05 SECS, INTEGRAL =      2.50 TIME LEFT: 172797.45
 STEP:  54 TIME =     0.03 SECS, INTEGRAL =      2.53 TIME LEFT: 172797.42
 STEP:  55 TIME =     0.05 SECS, INTEGRAL =      2.58 TIME LEFT: 172797.38
 STEP:  56 TIME =     0.05 SECS, INTEGRAL =      2.62 TIME LEFT: 172797.33
 STEP:  57 TIME =     0.05 SECS, INTEGRAL =      2.67 TIME LEFT: 172797.28
 STEP:  58 TIME =     0.05 SECS, INTEGRAL =      2.72 TIME LEFT: 172797.23
 STEP:  59 TIME =     0.03 SECS, INTEGRAL =      2.75 TIME LEFT: 172797.20
 STEP:  60 TIME =     0.06 SECS, INTEGRAL =      2.81 TIME LEFT: 172797.14
 STEP:  61 TIME =     0.06 SECS, INTEGRAL =      2.88 TIME LEFT: 172797.08
 STEP:  62 TIME =     0.05 SECS, INTEGRAL =      2.92 TIME LEFT: 172797.03
 STEP:  63 TIME =     0.05 SECS, INTEGRAL =      2.97 TIME LEFT: 172796.98
 STEP:  64 TIME =     0.06 SECS, INTEGRAL =      3.03 TIME LEFT: 172796.92
 STEP:  65 TIME =     0.05 SECS, INTEGRAL =      3.08 TIME LEFT: 172796.88
 STEP:  66 TIME =     0.06 SECS, INTEGRAL =      3.14 TIME LEFT: 172796.81
 STEP:  67 TIME =     0.05 SECS, INTEGRAL =      3.19 TIME LEFT: 172796.77
 STEP:  68 TIME =     0.06 SECS, INTEGRAL =      3.25 TIME LEFT: 172796.70
 STEP:  69 TIME =     0.06 SECS, INTEGRAL =      3.31 TIME LEFT: 172796.64
 STEP:  70 TIME =     0.06 SECS, INTEGRAL =      3.38 TIME LEFT: 172796.58
 STEP:  71 TIME =     0.05 SECS, INTEGRAL =      3.42 TIME LEFT: 172796.53
 STEP:  72 TIME =     0.06 SECS, INTEGRAL =      3.48 TIME LEFT: 172796.47

(To convert to Hartree/Bohr^2, multiply by (10^(-21) x N x a0^2)/(4.184 x 627.51) =  0.0642)


           FORCE MATRIX IN MILLIDYNES/ANGSTROM


                  O  1       C  2       C  3       C  4       N  5       C  6
 ------------------------------------------------------------------------------
     O    1  11.700514
     C    2   0.280709  15.855517
     C    3   9.516445   0.664131  15.325377
     C    4   0.330419   1.471516   0.718828  15.663612
     N    5   0.186346   5.197329   0.429300   5.284280  16.727098
     C    6   0.400565   0.369835   0.876121   7.274155   2.054455  15.076474
     C    7   0.851795   1.721100   1.908485   1.826334   0.968508   4.483706
     C    8   0.353257   7.638579   0.825757   0.326915   1.905953   0.833091
     H    9   1.036200   0.056554   3.275954   0.063419   0.037920   0.080010
     C   10   0.034895   0.676057   0.068676   0.718225   4.133589   0.118217
     H   11   0.957943   0.969449   2.200136   1.118694   0.640971   1.888797
     H   12   0.140701   0.089098   0.277613   0.117428   0.067375   0.152407
     H   13   0.097060   0.093812   0.235791   0.115024   0.065509   0.152700
     H   14   0.080743   0.058976   0.744615   0.060151   0.041025   0.070481
     H   15   0.032863   0.100151   0.074009   3.318776   0.865424   0.663403
     H   16   0.036898   0.094554   0.079320   0.807466   0.135494   3.409877
     H   17   0.114838   0.125922   0.264360   0.133933   0.065940   0.734266
     H   18   0.029720   0.799557   0.069379   0.099862   0.135392   0.080943
     H   19   0.009117   0.078309   0.021357   0.082644   0.784217   0.028843
     H   20   0.009108   0.093490   0.023518   0.085955   0.788760   0.029913
     H   21   0.101904   0.055384   0.137959   0.060751   0.795063   0.028310
     C   22   1.176098   1.010791   3.120553   1.100355   0.663505   1.464775
     C   23   2.417250   0.856084   4.730022   0.851469   0.540290   1.103189
     H   24   0.031818   3.298882   0.075414   0.096641   0.851308   0.028801


                  C  7       C  8       H  9       C 10       H 11       H 12
 ------------------------------------------------------------------------------
     C    7  12.522002
     C    8   4.417765  15.365276
     H    9   0.171461   0.073570   4.107985
     C   10   0.116988   0.116280   0.005812  11.448466
     H   11   3.335043   1.821773   0.189284   0.105332   2.143875
     H   12   0.343623   0.128257   0.018494   0.010594   0.608405   4.184212
     H   13   0.341830   0.138143   0.027337   0.011356   0.618866   0.425539
     H   14   0.153932   0.072332   0.019201   0.006581   0.175746   0.073804
     H   15   0.139265   0.027937   0.008398   0.054267   0.095114   0.010624
     H   16   0.700760   0.082285   0.008518   0.021772   0.106961   0.011607
     H   17   3.305743   0.736537   0.023359   0.008757   0.649723   0.048211
     H   18   0.699403   3.414355   0.006611   0.022060   0.096923   0.010765
     H   19   0.033772   0.027885   0.003106   3.281145   0.034093   0.003728
     H   20   0.033429   0.028948   0.002862   3.290725   0.035790   0.003900
     H   21   0.043270   0.025926   0.008100   3.254887   0.044176   0.004736
     C   22   3.988424   1.402157   0.232942   0.107052   3.798118   3.400756
     C   23   2.564172   1.091134   0.669665   0.085719   3.407369   0.833450
     H   24   0.132591   0.703423   0.007114   0.055336   0.090550   0.009527


                  H 13       H 14       H 15       H 16       H 17       H 18
 ------------------------------------------------------------------------------
     H   13   4.170454
     H   14   0.036316   4.400601
     H   15   0.010138   0.008386   4.226936
     H   16   0.011673   0.011006   0.037331   4.324237
     H   17   0.040590   0.023634   0.014362   0.020955   4.203571
     H   18   0.010637   0.007093   0.010043   0.012260   0.020414   4.330264
     H   19   0.003416   0.002873   0.019191   0.003613   0.003252   0.003302
     H   20   0.003614   0.002442   0.004281   0.002710   0.003527   0.002804
     H   21   0.004613   0.003551   0.007571   0.004115   0.005267   0.004720
     C   22   3.395152   0.866832   0.106256   0.117499   0.448186   0.108773
     C   23   0.840673   3.417906   0.087288   0.101861   0.350826   0.089482
     H   24   0.009409   0.007198   0.013230   0.009568   0.013227   0.037915


                  H 19       H 20       H 21       C 22       C 23       H 24
 ------------------------------------------------------------------------------
     H   19   4.096354
     H   20   0.435117   4.108222
     H   21   0.446267   0.440815   4.078077
     C   22   0.036711   0.038755   0.051009  11.464568
     C   23   0.028913   0.031302   0.066641   5.309088  13.479698
     H   24   0.003706   0.023401   0.004314   0.106416   0.094825   4.235100


          HEAT OF FORMATION =      32.402797 KCALS/MOLE

          ZERO POINT ENERGY     115.723 KCAL/MOL

         NOTE: SYSTEM IS NOT A GROUND STATE, THEREFORE ZERO POINT
         ENERGY IS NOT MEANINGFULL. ZERO POINT ENERGY PRINTED
         DOES NOT INCLUDE THE  2 IMAGINARY FREQUENCIES


           NORMAL COORDINATE ANALYSIS (Total motion = 1 Angstrom)


   Root No.       1         2         3         4         5         6         7         8

                 1 A       2 A       3 A       4 A       5 A       6 A       7 A       8 A   

               -2472.3    -122.6      21.6      46.6      79.3     102.4     138.2     200.8
  
           1   -0.0015   -0.0046   -0.0551   -0.0236    0.0762   -0.0293    0.0280   -0.0202
           2    0.0071    0.0186    0.0119    0.0157    0.0222   -0.0224    0.0072    0.0017
           3   -0.0017    0.0459   -0.0360    0.0197    0.0045   -0.0153   -0.0095   -0.0156
           4    0.0036    0.0070    0.0244    0.0332   -0.0127    0.0075    0.0410   -0.0052
           5    0.0005    0.0031   -0.0030    0.0117   -0.0072    0.0041    0.0044    0.0060
           6   -0.0089   -0.0050    0.0123    0.0043    0.0055    0.0064    0.0226   -0.0011
           7   -0.0032   -0.0129   -0.0286    0.0024    0.0559    0.0215   -0.0140    0.0418
           8   -0.0191    0.0185    0.0158    0.0190    0.0191   -0.0151    0.0014    0.0107
           9    0.0122   -0.0061   -0.0244    0.0126    0.0063    0.0172   -0.0027    0.0043
          10   -0.0017   -0.0040    0.0031   -0.0250   -0.0461   -0.0129    0.0170    0.0261
          11    0.0102   -0.0076   -0.0163   -0.0149   -0.0227    0.0052    0.0019    0.0086
          12   -0.0043    0.0008    0.0105   -0.0137   -0.0070   -0.0162    0.0026    0.0261
          13    0.0015    0.0025    0.0262   -0.0008   -0.0162   -0.0053    0.0297    0.0393
          14   -0.0032   -0.0047   -0.0077   -0.0061   -0.0109    0.0082    0.0053    0.0133
          15    0.0046   -0.0042    0.0156   -0.0097    0.0053   -0.0025    0.0156    0.0254
          16   -0.0032   -0.0037   -0.0201   -0.0251   -0.0559   -0.0085    0.0035   -0.0202
          17    0.0021   -0.0013   -0.0196   -0.0094   -0.0235   -0.0012   -0.0093   -0.0007
          18    0.0176    0.0055    0.0041   -0.0100   -0.0104   -0.0212   -0.0077    0.0108
          19   -0.0288    0.0013   -0.0129   -0.0008   -0.0242    0.0038   -0.0131   -0.0260
          20    0.0004    0.0069   -0.0140   -0.0000   -0.0111   -0.0076   -0.0248    0.0061
          21   -0.0324    0.0041    0.0046   -0.0027   -0.0015   -0.0127   -0.0089    0.0048
          22    0.0089    0.0075    0.0023    0.0324   -0.0196    0.0112    0.0193   -0.0315
          23   -0.0134    0.0090   -0.0062    0.0168   -0.0086   -0.0031   -0.0082    0.0035
          24    0.0062   -0.0003    0.0059    0.0078    0.0036    0.0022    0.0094   -0.0068
          25    0.0106   -0.0352   -0.0196    0.0147    0.0723    0.0541   -0.0230    0.1096
          26    0.0175    0.0432    0.0175    0.0359    0.0148   -0.0192   -0.0163    0.0277
          27    0.0138   -0.0287   -0.0203    0.0109    0.0165    0.0372    0.0004    0.0312
          28   -0.0013    0.0009    0.0753   -0.0067    0.0193   -0.0139   -0.0320   -0.0164
          29   -0.0006   -0.0205    0.0007   -0.0118   -0.0040    0.0107   -0.0069   -0.0132
          30    0.0002   -0.0177    0.0370   -0.0161    0.0218   -0.0030   -0.0125   -0.0123
          31    0.4257    0.0089   -0.0076    0.0082    0.0001    0.0108   -0.0310   -0.0108
          32    0.0798    0.0055   -0.0261   -0.0381   -0.0038   -0.0239   -0.0579    0.0081
          33    0.1689    0.0006    0.0013   -0.0096   -0.0389   -0.0194    0.0272   -0.0235
          34    0.0716    0.0249   -0.0361   -0.0140   -0.0241   -0.0352   -0.0693    0.0028
          35    0.0103   -0.0177    0.0151   -0.0253    0.0228    0.0204    0.0201   -0.0329
          36    0.0144    0.0105   -0.0263    0.0187   -0.0357   -0.0222   -0.0320    0.0143
          37    0.0735    0.0136    0.0112    0.0043   -0.0192   -0.0098   -0.0067   -0.0218
          38    0.0183   -0.0304    0.0267   -0.0347    0.0312    0.0449    0.0444   -0.0572
          39    0.0154   -0.0158   -0.0081   -0.0036   -0.0169    0.0269    0.0116   -0.0323
          40   -0.0101   -0.0131    0.0143    0.0334    0.0095    0.0699   -0.0380    0.0292
          41    0.0095   -0.0048    0.0243    0.0078    0.0176    0.0105    0.0105   -0.0002
          42    0.0017   -0.0420   -0.0058   -0.0080   -0.0020    0.0726    0.0079   -0.0225
          43    0.0045   -0.0084    0.0027   -0.0459   -0.0618   -0.0221    0.0195    0.0545
          44   -0.0042   -0.0139   -0.0189   -0.0262   -0.0271    0.0102    0.0074    0.0132
          45   -0.0042    0.0007    0.0114   -0.0205   -0.0134   -0.0226    0.0018    0.0396
          46    0.0043   -0.0075   -0.0416   -0.0440   -0.0831   -0.0130    0.0013   -0.0385
          47   -0.0059   -0.0027   -0.0257   -0.0150   -0.0312   -0.0021   -0.0096   -0.0057
          48    0.0022    0.0100   -0.0005   -0.0127   -0.0172   -0.0303   -0.0170    0.0100
          49    0.0693    0.0019   -0.0203   -0.0155   -0.0097    0.0043   -0.0424   -0.0273
          50    0.0145    0.0127   -0.0089    0.0078   -0.0031   -0.0110   -0.0320    0.0121
          51    0.0482    0.0101    0.0053   -0.0030    0.0158   -0.0157   -0.0342    0.0101
          52   -0.0011    0.0119   -0.0015    0.0569   -0.0177    0.0201    0.0280   -0.0564
          53    0.0043    0.0164   -0.0037    0.0337   -0.0078   -0.0055   -0.0054   -0.0024
          54    0.0048   -0.0001    0.0019    0.0186    0.0044    0.0095    0.0146   -0.0230
          55    0.0010   -0.1730    0.0636    0.0825    0.0087   -0.1164   -0.0738   -0.0396
          56    0.0009    0.0111    0.0237   -0.0416    0.0146    0.0381   -0.0211   -0.0433
          57   -0.0030   -0.0186    0.0264   -0.0086    0.0131   -0.0080   -0.0015    0.0052
          58   -0.0008    0.1149    0.1126   -0.0697    0.0482    0.0484   -0.0421   -0.0338
          59    0.0023    0.0691    0.0296   -0.0616    0.0186    0.0602   -0.0142   -0.0267
          60   -0.0027    0.0746    0.0479   -0.0738    0.0318    0.0616    0.0069   -0.0164
          61   -0.0005    0.0627    0.0907   -0.0387    0.0310    0.0188   -0.0318   -0.0208
          62    0.0028   -0.1603   -0.0452    0.0641   -0.0392   -0.0638    0.0064    0.0106
          63    0.0066   -0.1253    0.0572    0.0289    0.0348   -0.0624   -0.0683   -0.0588
          64   -0.0456    0.0101   -0.0105    0.0027   -0.0112   -0.0030   -0.0369   -0.0008
          65   -0.0000   -0.0162    0.0148   -0.0222    0.0214    0.0169    0.0177   -0.0280
          66    0.0119   -0.0066   -0.0145    0.0042   -0.0238    0.0092   -0.0038   -0.0154
          67    0.0175   -0.0040   -0.0078    0.0166    0.0160    0.0359   -0.0365    0.0187
          68    0.0012   -0.0056    0.0198    0.0029    0.0194    0.0047    0.0122   -0.0028
          69   -0.0280   -0.0200   -0.0146    0.0028   -0.0067    0.0374   -0.0009   -0.0127
          70   -0.0028    0.0110    0.0414    0.0600   -0.0036    0.0129    0.0669   -0.0128
          71    0.0059    0.0045    0.0040    0.0233   -0.0034    0.0073    0.0161    0.0020
          72    0.0014   -0.0082    0.0145    0.0122    0.0082    0.0182    0.0398   -0.0134


   Root No.       9        10        11        12        13        14        15        16

                 9 A      10 A      11 A      12 A      13 A      14 A      15 A      16 A   

                 246.7     277.0     333.0     372.3     404.5     450.7     505.2     563.7
  
           1   -0.0096    0.0231    0.0147   -0.0039    0.0044    0.0058   -0.0001   -0.0024
           2   -0.0149    0.0117    0.0025   -0.0003    0.0001    0.0030    0.0012    0.0005
           3    0.0479   -0.0252    0.0032    0.0016    0.0042   -0.0004   -0.0008   -0.0004
           4   -0.0000    0.0001   -0.0214   -0.0036    0.0422   -0.0202    0.0137   -0.0195
           5   -0.0006   -0.0027   -0.0021   -0.0241    0.0115   -0.0096   -0.0168    0.0084
           6    0.0020   -0.0043   -0.0071   -0.0316    0.0026   -0.0174   -0.0085   -0.0084
           7   -0.0180   -0.0402   -0.0215    0.0023   -0.0054   -0.0070    0.0047    0.0056
           8   -0.0165    0.0038   -0.0022   -0.0000   -0.0010    0.0009    0.0017    0.0021
           9   -0.0142   -0.0052   -0.0127    0.0053   -0.0087   -0.0032    0.0019    0.0017
          10   -0.0031   -0.0150    0.0339    0.0216    0.0044   -0.0348   -0.0141   -0.0114
          11    0.0006   -0.0049    0.0154   -0.0243   -0.0199   -0.0145    0.0144   -0.0109
          12   -0.0011   -0.0101    0.0196   -0.0020    0.0018   -0.0104    0.0170   -0.0142
          13    0.0329    0.0329   -0.0187    0.0258   -0.0138    0.0352   -0.0019    0.0146
          14    0.0127    0.0111   -0.0027   -0.0232   -0.0233    0.0101    0.0199   -0.0034
          15    0.0181    0.0117   -0.0066   -0.0144   -0.0167    0.0131   -0.0332    0.0192
          16   -0.0190   -0.0219   -0.0188   -0.0269    0.0198    0.0289   -0.0202    0.0172
          17   -0.0068   -0.0065   -0.0017   -0.0144    0.0020    0.0129    0.0160   -0.0030
          18   -0.0092   -0.0111   -0.0029    0.0032    0.0215    0.0210    0.0251   -0.0058
          19    0.0034    0.0032   -0.0234    0.0068   -0.0317    0.0122   -0.0156   -0.0467
          20    0.0000    0.0001   -0.0072    0.0110    0.0061    0.0107   -0.0323   -0.0058
          21   -0.0023   -0.0034   -0.0054    0.0090   -0.0020    0.0157    0.0421   -0.0322
          22   -0.0180   -0.0182    0.0164    0.0238   -0.0344    0.0081   -0.0002   -0.0022
          23   -0.0107   -0.0118    0.0142    0.0177    0.0018    0.0070   -0.0314    0.0195
          24   -0.0077   -0.0132    0.0114   -0.0014   -0.0197    0.0010   -0.0140    0.0002
          25   -0.0742   -0.1284   -0.0882    0.0190   -0.0438   -0.0191    0.0318    0.0292
          26    0.0037   -0.0352   -0.0117    0.0025   -0.0020    0.0019    0.0071    0.0062
          27   -0.0499   -0.0342   -0.0428    0.0126   -0.0279   -0.0102    0.0132    0.0119
          28   -0.0048   -0.0032    0.0029   -0.0255   -0.0169    0.0017    0.0093   -0.0027
          29   -0.0008    0.0030   -0.0049    0.0416    0.0186    0.0088    0.0305   -0.0103
          30   -0.0038   -0.0053   -0.0024    0.0239    0.0174    0.0019   -0.0361    0.0164
          31    0.0237    0.0219    0.0064    0.0036   -0.0100   -0.0163    0.0053    0.0029
          32    0.0358    0.0348   -0.0803    0.0105    0.0195   -0.0764   -0.0931   -0.0764
          33   -0.0379   -0.0230   -0.0055    0.0000   -0.0124    0.0481    0.0754    0.0241
          34    0.0245    0.0468   -0.0630    0.0168   -0.0027   -0.1083   -0.0313    0.0110
          35    0.0586   -0.0299   -0.0110    0.0071   -0.0054   -0.0196    0.0029    0.0098
          36   -0.0964    0.1125   -0.0330    0.0046   -0.0104   -0.0607   -0.0347   -0.0131
          37    0.0138   -0.0031    0.0222    0.0004   -0.0132    0.0132    0.1233    0.1228
          38    0.1066   -0.0782    0.0130    0.0058   -0.0077    0.0127    0.0507    0.0505
          39    0.0085    0.0111    0.0077    0.0027   -0.0112    0.0003    0.0414    0.0447
          40    0.0219    0.0228    0.0948   -0.0386    0.0646    0.0953   -0.0066   -0.0432
          41   -0.0154    0.0211    0.0170   -0.0079    0.0082    0.0155   -0.0035   -0.0110
          42    0.0250    0.0113    0.0330   -0.0119    0.0179    0.0300   -0.0099   -0.0244
          43   -0.0134   -0.0392    0.1006    0.0419    0.0024   -0.1123   -0.0102   -0.0307
          44   -0.0009   -0.0131    0.0352   -0.0319   -0.0288   -0.0451   -0.0182   -0.0034
          45   -0.0059   -0.0197    0.0472    0.0129    0.0048   -0.0398    0.0300   -0.0266
          46   -0.0462   -0.0524   -0.0258   -0.0787    0.0718    0.0600   -0.0179    0.0775
          47   -0.0139   -0.0150   -0.0040   -0.0297    0.0148    0.0207    0.0157    0.0137
          48   -0.0204   -0.0230   -0.0086    0.0051    0.0602    0.0405   -0.0012    0.0247
          49    0.0316    0.0307   -0.0520    0.0036   -0.0380   -0.0187   -0.0373   -0.1171
          50    0.0033    0.0038   -0.0015    0.0280    0.0093    0.0076   -0.0304   -0.0110
          51    0.0174    0.0161   -0.0169    0.0253   -0.0038   -0.0027    0.0275   -0.0827
          52   -0.0429   -0.0460    0.0540    0.0464   -0.0611   -0.0051   -0.0331    0.0399
          53   -0.0258   -0.0256    0.0342    0.0476    0.0063    0.0078   -0.0184    0.0367
          54   -0.0200   -0.0279    0.0308    0.0026   -0.0413   -0.0088   -0.0404    0.0233
          55    0.0288   -0.0287    0.0127   -0.0473   -0.0191   -0.0064    0.0113   -0.0054
          56   -0.0299   -0.0033   -0.0073    0.1008    0.0590    0.0082    0.0313   -0.0105
          57    0.0079    0.0003   -0.0022   -0.0030   -0.0023    0.0035   -0.0359    0.0167
          58   -0.0479   -0.0061    0.0083   -0.0471   -0.0250   -0.0075    0.0099   -0.0054
          59   -0.0349    0.0013   -0.0013    0.0293    0.0151    0.0023    0.0306   -0.0121
          60   -0.0329    0.0071   -0.0134    0.1006    0.0563    0.0123   -0.0297    0.0163
          61   -0.0221   -0.0025    0.0041   -0.0338   -0.0205   -0.0010    0.0094   -0.0035
          62    0.0490    0.0088   -0.0114    0.0648    0.0243    0.0211    0.0263   -0.0043
          63   -0.0089   -0.0355    0.0099    0.0152    0.0283   -0.0126   -0.0305    0.0095
          64    0.0212    0.0243   -0.0041    0.0034    0.0017   -0.0377    0.0270    0.0503
          65    0.0460   -0.0194   -0.0126    0.0069   -0.0056   -0.0241   -0.0017    0.0079
          66   -0.0279    0.0463   -0.0067    0.0032   -0.0102   -0.0210    0.0151    0.0256
          67    0.0218    0.0177    0.0357   -0.0143    0.0281    0.0166   -0.0077   -0.0090
          68   -0.0173    0.0212    0.0045   -0.0028    0.0002   -0.0018   -0.0040   -0.0039
          69   -0.0029    0.0271    0.0108   -0.0035    0.0041    0.0014   -0.0055   -0.0046
          70   -0.0058   -0.0054   -0.0457   -0.0364    0.1230   -0.0700    0.0092   -0.0235
          71   -0.0032   -0.0050   -0.0127   -0.0376    0.0465   -0.0305   -0.0158    0.0048
          72    0.0002   -0.0054   -0.0207   -0.0631    0.0268   -0.0434    0.0244   -0.0308


   Root No.      17        18        19        20        21        22        23        24

                17 A      18 A      19 A      20 A      21 A      22 A      23 A      24 A   

                 622.6     626.8     680.1     796.4     829.9     839.2     854.5     943.6
  
           1    0.0035    0.0040   -0.0051    0.0041    0.0044    0.0019   -0.0020   -0.0005
           2    0.0087    0.0094   -0.0330    0.0006    0.0035    0.0020   -0.0018    0.0008
           3   -0.0079   -0.0085    0.0343    0.0016   -0.0001   -0.0004    0.0001   -0.0009
           4   -0.0038    0.0132    0.0025   -0.0095    0.0040   -0.0050   -0.0200   -0.0259
           5    0.0507   -0.0186    0.0075   -0.0052   -0.0020    0.0085   -0.0090   -0.0120
           6   -0.0104    0.0134   -0.0006   -0.0013    0.0094   -0.0228   -0.0049   -0.0094
           7   -0.0088   -0.0088    0.0266   -0.0080   -0.0107   -0.0043    0.0063    0.0017
           8    0.0052    0.0056   -0.0234   -0.0005   -0.0004    0.0001    0.0005   -0.0006
           9    0.0148    0.0150   -0.0632   -0.0025    0.0021    0.0023   -0.0029    0.0050
          10   -0.0034    0.0258    0.0063   -0.0098    0.0104    0.0060    0.0108   -0.0309
          11    0.0003   -0.0015   -0.0010   -0.0044   -0.0000    0.0165    0.0002   -0.0104
          12    0.0323   -0.0372   -0.0042   -0.0021    0.0116   -0.0154    0.0113   -0.0106
          13   -0.0164   -0.0040   -0.0046    0.0070   -0.0056    0.0018    0.0006    0.0070
          14    0.0010   -0.0178   -0.0055    0.0035    0.0002   -0.0033    0.0028    0.0013
          15    0.0108   -0.0011    0.0025    0.0019   -0.0059    0.0092   -0.0000    0.0038
          16    0.0030   -0.0130   -0.0024   -0.0134    0.0221   -0.0053    0.0249    0.0130
          17   -0.0423    0.0376    0.0030   -0.0128   -0.0115    0.0490   -0.0075   -0.0002
          18    0.0006   -0.0178   -0.0035   -0.0080    0.0068    0.0041    0.0078    0.0062
          19    0.0361    0.0174    0.0132    0.0060   -0.0102   -0.0073    0.0048    0.0119
          20    0.0082    0.0332    0.0106    0.0051   -0.0011   -0.0221    0.0085    0.0067
          21   -0.0110    0.0040   -0.0000   -0.0036   -0.0109    0.0266   -0.0062    0.0018
          22    0.0100   -0.0308   -0.0028   -0.0163   -0.0010    0.0178   -0.0313    0.0116
          23   -0.0000    0.0056    0.0019   -0.0027    0.0069   -0.0208   -0.0062    0.0052
          24   -0.0484    0.0245   -0.0063   -0.0006    0.0154   -0.0447   -0.0026    0.0098
          25    0.0133    0.0165    0.0599    0.0571    0.0537    0.0177   -0.0237   -0.0185
          26    0.0049    0.0062   -0.0035    0.0060    0.0103    0.0044   -0.0034    0.0004
          27    0.0241    0.0254   -0.0462    0.0275    0.0295    0.0111   -0.0159   -0.0062
          28   -0.0094   -0.0016   -0.0041    0.0029    0.0032   -0.0116    0.0031    0.0026
          29   -0.0054   -0.0173   -0.0049    0.0053    0.0101   -0.0322    0.0088    0.0041
          30    0.0166    0.0091    0.0104   -0.0058   -0.0136    0.0393   -0.0099   -0.0049
          31    0.0124    0.0097    0.0001   -0.0026   -0.0104   -0.0192   -0.0052   -0.0078
          32   -0.0586   -0.0625   -0.0627    0.0380    0.0611    0.0366   -0.0087   -0.0177
          33    0.0312    0.0418    0.0520   -0.0219    0.0021    0.0303    0.0136    0.0591
          34   -0.0574   -0.0627   -0.0876   -0.0321    0.0643    0.0526   -0.0452    0.0752
          35   -0.0030   -0.0035   -0.0203   -0.0051    0.0043    0.0040   -0.0039    0.0054
          36   -0.0611   -0.0689    0.1106   -0.0038    0.0218    0.0147   -0.0224    0.0266
          37    0.0856    0.1018    0.1040    0.0466   -0.0024   -0.0271    0.0280   -0.0031
          38    0.0550    0.0622   -0.0673    0.0080   -0.0118   -0.0166    0.0162   -0.0169
          39    0.0403    0.0457   -0.0193    0.0103   -0.0116   -0.0166    0.0142   -0.0176
          40    0.0201    0.0278    0.0324    0.1399    0.1694    0.0872   -0.0756    0.0224
          41   -0.0072   -0.0068    0.0654    0.0294    0.0284    0.0132   -0.0120    0.0015
          42   -0.0018   -0.0011    0.0468    0.0649    0.0809    0.0415   -0.0398    0.0158
          43   -0.0001    0.0230   -0.0053    0.0750   -0.0943   -0.0285   -0.0793    0.1611
          44    0.0182   -0.0007   -0.0003    0.0255   -0.0313   -0.0019   -0.0242    0.0497
          45    0.0254   -0.0359   -0.0097    0.0319   -0.0326   -0.0263   -0.0274    0.0690
          46   -0.0519   -0.0862   -0.0539    0.1070   -0.1209   -0.0713   -0.1363   -0.0686
          47   -0.0543    0.0139   -0.0116    0.0214   -0.0500    0.0292   -0.0515   -0.0228
          48   -0.0275   -0.0162   -0.0161    0.0379   -0.0394   -0.0487   -0.0430   -0.0150
          49    0.0179    0.0315   -0.0076    0.0838   -0.0506   -0.0202    0.0233   -0.0971
          50    0.0400    0.0051    0.0081    0.0168   -0.0134   -0.0294    0.0022   -0.0148
          51    0.0149   -0.0121   -0.0127    0.0533   -0.0482    0.0055    0.0002   -0.0807
          52   -0.0565   -0.0951   -0.0545    0.0897   -0.0261    0.1008    0.1409   -0.0648
          53   -0.0578   -0.0210   -0.0279    0.0488   -0.0159    0.0516    0.0789   -0.0468
          54   -0.0703   -0.0146   -0.0317    0.0539    0.0056   -0.0098    0.0859   -0.0241
          55   -0.0149   -0.0030    0.0091    0.0005    0.0042   -0.0091    0.0026   -0.0017
          56    0.0005   -0.0144   -0.0050    0.0004    0.0097   -0.0251    0.0034    0.0009
          57    0.0144    0.0066    0.0084   -0.0028   -0.0123    0.0321   -0.0065   -0.0023
          58   -0.0043    0.0029   -0.0127   -0.0009    0.0041   -0.0047    0.0022    0.0001
          59    0.0003   -0.0141   -0.0117    0.0019    0.0098   -0.0242    0.0068    0.0019
          60    0.0177    0.0072    0.0023   -0.0050   -0.0090    0.0259   -0.0102   -0.0024
          61   -0.0090   -0.0003   -0.0045    0.0018    0.0027   -0.0083    0.0031    0.0014
          62   -0.0069   -0.0201   -0.0021    0.0079    0.0064   -0.0293    0.0061    0.0065
          63    0.0182    0.0105    0.0107   -0.0115   -0.0082    0.0358   -0.0104   -0.0074
          64    0.0027    0.0048   -0.0100    0.0064    0.0075    0.0022   -0.0042   -0.0051
          65   -0.0127   -0.0145    0.0031   -0.0048    0.0057    0.0053   -0.0070    0.0074
          66    0.0041    0.0049    0.0244    0.0059   -0.0009   -0.0050    0.0023   -0.0058
          67   -0.0080   -0.0070   -0.0150   -0.0252   -0.0200   -0.0071    0.0111    0.0025
          68   -0.0151   -0.0162    0.0650   -0.0038   -0.0110   -0.0067    0.0057   -0.0031
          69   -0.0019   -0.0021   -0.0127   -0.0087   -0.0096   -0.0039    0.0051   -0.0020
          70   -0.0030    0.0259   -0.0046    0.0689   -0.0486    0.0500    0.1230    0.1331
          71    0.0483   -0.0126    0.0037    0.0280   -0.0249    0.0322    0.0522    0.0558
          72   -0.0099   -0.0009   -0.0101    0.0341   -0.0172    0.0163    0.0613    0.0650


   Root No.      25        26        27        28        29        30        31        32

                25 A      26 A      27 A      28 A      29 A      30 A      31 A      32 A   

                 974.1     993.5    1011.1    1027.4    1054.7    1083.6    1094.4    1095.8
  
           1    0.0029    0.0145    0.0013    0.0029    0.0009    0.0001   -0.0002    0.0007
           2    0.0005    0.0022   -0.0013    0.0041    0.0006   -0.0007    0.0004   -0.0012
           3    0.0006    0.0055   -0.0024    0.0036    0.0005    0.0006    0.0008    0.0003
           4   -0.0366    0.0047    0.0112    0.0083   -0.0398   -0.0088   -0.0005    0.0011
           5   -0.0143    0.0003   -0.0007   -0.0070    0.0713    0.0119    0.0072   -0.0042
           6   -0.0164   -0.0005    0.0057    0.0023    0.0301    0.0063    0.0034   -0.0066
           7   -0.0139   -0.0686   -0.0120   -0.0092   -0.0053   -0.0011    0.0012   -0.0038
           8   -0.0030   -0.0134   -0.0041   -0.0026   -0.0004   -0.0001   -0.0012    0.0003
           9    0.0001   -0.0156    0.0261   -0.0299   -0.0046   -0.0008   -0.0007   -0.0014
          10    0.0349   -0.0147    0.0064    0.0021    0.0386   -0.0117    0.0008    0.0081
          11    0.0109   -0.0028    0.0026    0.0047   -0.0502    0.0183    0.0015   -0.0052
          12    0.0147   -0.0046    0.0082    0.0102   -0.0481    0.0134    0.0004   -0.0084
          13    0.0007    0.0009   -0.0020   -0.0013   -0.0029    0.0096    0.0229   -0.0006
          14   -0.0005    0.0007    0.0003    0.0004   -0.0153   -0.0140    0.0023    0.0059
          15   -0.0002    0.0005   -0.0001   -0.0011    0.0118   -0.0115    0.0118    0.0065
          16   -0.0247    0.0176   -0.0203   -0.0209   -0.0091   -0.0062   -0.0007   -0.0007
          17   -0.0038    0.0065   -0.0066   -0.0047    0.0068    0.0087    0.0009   -0.0149
          18   -0.0075    0.0078   -0.0059   -0.0039    0.0044    0.0014    0.0022   -0.0105
          19    0.0019   -0.0073    0.0248    0.0248   -0.0025    0.0075    0.0031   -0.0039
          20   -0.0017   -0.0030    0.0160    0.0165   -0.0252   -0.0140   -0.0007   -0.0102
          21   -0.0011    0.0001    0.0007   -0.0014    0.0280   -0.0045   -0.0005    0.0204
          22    0.0252   -0.0000   -0.0209   -0.0113   -0.0016   -0.0041   -0.0065    0.0088
          23    0.0117    0.0004   -0.0121   -0.0110   -0.0069    0.0107   -0.0010    0.0089
          24    0.0129   -0.0001   -0.0093   -0.0076   -0.0044    0.0084    0.0016    0.0031
          25    0.0522    0.2745   -0.0133    0.0898    0.0263    0.0035   -0.0016    0.0118
          26    0.0057    0.0381   -0.0103    0.0288    0.0054   -0.0021    0.0018   -0.0045
          27    0.0296    0.1352    0.0257    0.0087    0.0089    0.0023   -0.0032    0.0083
          28   -0.0000   -0.0005    0.0002   -0.0004    0.0149    0.0155   -0.0483   -0.0157
          29   -0.0003   -0.0013    0.0002    0.0003    0.0241   -0.0257   -0.0179    0.0108
          30   -0.0007    0.0012   -0.0021    0.0020   -0.0319   -0.0102   -0.0375    0.0023
          31    0.0220    0.0196   -0.0055   -0.0133   -0.0145   -0.0277    0.0111   -0.0569
          32   -0.0399   -0.0160   -0.0553    0.0044   -0.0128    0.1006   -0.0576    0.2112
          33   -0.0300   -0.0566    0.0706    0.0612    0.0642    0.0065    0.0018    0.0117
          34   -0.0012   -0.0851    0.0249    0.1402    0.0674   -0.0209    0.0079   -0.0131
          35   -0.0001   -0.0073   -0.0052    0.0158    0.0045   -0.0029    0.0019   -0.0042
          36    0.0218    0.0252    0.1123   -0.0736    0.0016   -0.0112    0.0001   -0.0177
          37   -0.0224   -0.0233    0.1168   -0.0907    0.0012    0.0665   -0.0477    0.1542
          38   -0.0194   -0.0432   -0.1002    0.0950    0.0070    0.0087   -0.0028    0.0225
          39   -0.0164   -0.0379   -0.0972    0.0853    0.0036    0.0033    0.0006    0.0092
          40   -0.0058   -0.0881   -0.0177    0.0026   -0.0047   -0.0136    0.0090   -0.0283
          41   -0.0034   -0.0230   -0.0149    0.0091   -0.0010   -0.0011    0.0023   -0.0024
          42    0.0040   -0.0364    0.0264   -0.0309   -0.0056   -0.0129    0.0053   -0.0262
          43   -0.1668    0.0611   -0.0302   -0.0207    0.0275   -0.0063    0.0074   -0.0025
          44   -0.0577    0.0186   -0.0113   -0.0111   -0.0326   -0.0240    0.0019    0.0281
          45   -0.0672    0.0271   -0.0064    0.0031   -0.0527    0.0259    0.0035   -0.0251
          46    0.0997   -0.0538    0.0566    0.0500   -0.0203    0.0252   -0.0026    0.0213
          47    0.0299   -0.0138    0.0141    0.0144   -0.0053    0.0216    0.0007   -0.0070
          48    0.0335   -0.0218    0.0345    0.0312    0.0955   -0.0692   -0.0035   -0.0108
          49   -0.0068    0.0180   -0.0864   -0.1015    0.0141    0.0160    0.0095   -0.0357
          50    0.0113    0.0053   -0.0078   -0.0139   -0.0313   -0.0617    0.0020   -0.0328
          51    0.0078    0.0232   -0.0809   -0.0990    0.0309   -0.0507    0.0074   -0.0271
          52   -0.1013   -0.0006    0.0672    0.0459    0.0398   -0.0040    0.0064   -0.0288
          53   -0.0677    0.0094    0.0279    0.0111   -0.0942   -0.0359   -0.0104    0.0383
          54   -0.0465   -0.0038    0.0377    0.0248    0.0657    0.0266    0.0143   -0.0364
          55    0.0003   -0.0012   -0.0035    0.0026   -0.0037   -0.0090    0.1560    0.0263
          56    0.0013    0.0001    0.0004   -0.0039    0.0267    0.1052    0.1358   -0.0395
          57   -0.0015    0.0004   -0.0014    0.0028   -0.0254   -0.0657   -0.1099    0.0220
          58    0.0014    0.0006    0.0053   -0.0036   -0.0088   -0.0529    0.1249    0.0449
          59    0.0006    0.0002    0.0044   -0.0023    0.0028   -0.0591    0.1075    0.0455
          60    0.0004    0.0013    0.0008   -0.0025   -0.0041    0.1398    0.0414   -0.0723
          61    0.0002   -0.0006   -0.0010    0.0016    0.0020   -0.0202   -0.0064    0.0105
          62   -0.0014   -0.0006    0.0015   -0.0028    0.0383    0.0637   -0.1243   -0.0545
          63    0.0013    0.0025    0.0040   -0.0037   -0.0427   -0.0007    0.2573    0.0357
          64    0.0036    0.0102   -0.0058   -0.0135   -0.0079   -0.0053    0.0041   -0.0152
          65    0.0069    0.0093    0.0269   -0.0198   -0.0007   -0.0061    0.0026   -0.0129
          66   -0.0036   -0.0104   -0.0291    0.0195   -0.0026   -0.0017    0.0022   -0.0043
          67    0.0015    0.0294    0.0106    0.0102    0.0072    0.0053   -0.0028    0.0115
          68   -0.0010    0.0035   -0.0060    0.0069    0.0008    0.0027    0.0001    0.0051
          69   -0.0003    0.0100   -0.0008    0.0042    0.0037    0.0036   -0.0030    0.0085
          70    0.1707   -0.0145   -0.0357   -0.0147   -0.0347    0.0124    0.0032    0.0111
          71    0.0742   -0.0070   -0.0197   -0.0153    0.0624    0.0147    0.0065    0.0020
          72    0.0770   -0.0085   -0.0084    0.0049   -0.0085   -0.0322   -0.0109   -0.0028


   Root No.      33        34        35        36        37        38        39        40

                33 A      34 A      35 A      36 A      37 A      38 A      39 A      40 A   

                1115.7    1165.4    1193.6    1203.0    1209.0    1243.7    1254.2    1266.4
  
           1   -0.0005   -0.0001    0.0001   -0.0000    0.0002   -0.0002    0.0001   -0.0009
           2   -0.0008   -0.0006   -0.0040   -0.0104    0.0163    0.0015   -0.0009    0.0066
           3   -0.0004    0.0003    0.0018    0.0034   -0.0047   -0.0001    0.0009    0.0006
           4   -0.0026   -0.0005    0.0023    0.0002    0.0001   -0.0021    0.0019    0.0033
           5   -0.0051   -0.0099   -0.0074   -0.0049   -0.0052    0.0023   -0.0021   -0.0039
           6    0.0085    0.0082   -0.0037    0.0055    0.0045    0.0015   -0.0013   -0.0040
           7    0.0030   -0.0000   -0.0036   -0.0063    0.0079    0.0005    0.0002    0.0017
           8    0.0010   -0.0004    0.0018    0.0022    0.0004    0.0005   -0.0039    0.0034
           9    0.0023    0.0006    0.0019    0.0120   -0.0246   -0.0029    0.0022   -0.0115
          10   -0.0000    0.0061    0.0011   -0.0027   -0.0005    0.0012    0.0010   -0.0030
          11   -0.0096    0.0026   -0.0023    0.0060    0.0058   -0.0035    0.0002    0.0015
          12    0.0058   -0.0150    0.0030   -0.0005   -0.0026   -0.0014   -0.0016    0.0042
          13    0.0011   -0.0060   -0.0043    0.0057    0.0034   -0.0031   -0.0035    0.0034
          14    0.0029    0.0079    0.0107   -0.0044   -0.0029    0.0029   -0.0046    0.0120
          15   -0.0005    0.0062    0.0026   -0.0073   -0.0041   -0.0071    0.0065   -0.0106
          16   -0.0128    0.0094   -0.0011   -0.0002   -0.0029    0.0020   -0.0037    0.0070
          17    0.0248   -0.0125   -0.0054    0.0044   -0.0034    0.0005   -0.0019    0.0044
          18    0.0188   -0.0097   -0.0052    0.0042   -0.0001   -0.0013    0.0012   -0.0029
          19    0.0017   -0.0061   -0.0184   -0.0049   -0.0074   -0.0004    0.0023   -0.0072
          20    0.0218    0.0120    0.0135   -0.0005    0.0029   -0.0007    0.0000   -0.0021
          21   -0.0292    0.0171   -0.0153   -0.0148   -0.0117   -0.0007    0.0019   -0.0051
          22    0.0228    0.0074    0.0137    0.0005    0.0032   -0.0003   -0.0010    0.0012
          23   -0.0253   -0.0135   -0.0050    0.0019    0.0008    0.0023   -0.0015    0.0051
          24   -0.0136   -0.0072   -0.0020   -0.0015   -0.0013    0.0002    0.0003   -0.0000
          25   -0.0147   -0.0012    0.0060   -0.0034    0.0198    0.0031   -0.0040    0.0130
          26   -0.0031   -0.0042   -0.0288   -0.0793    0.1178    0.0057    0.0163   -0.0116
          27   -0.0049    0.0016    0.0202    0.0492   -0.0696   -0.0036   -0.0093    0.0026
          28   -0.0034    0.0124    0.0034   -0.0054   -0.0034   -0.0184    0.0124    0.0010
          29    0.0025   -0.0178   -0.0103    0.0033    0.0021   -0.0103   -0.0094   -0.0129
          30   -0.0015   -0.0127   -0.0029    0.0063    0.0041   -0.0012   -0.0161    0.0067
          31    0.0145    0.0215   -0.0914   -0.0486   -0.0816   -0.0001   -0.0027   -0.0236
          32    0.1104    0.0274    0.0047    0.0047    0.0394   -0.0115    0.0310   -0.0471
          33   -0.0794   -0.0556    0.1527    0.0612    0.1441   -0.0168    0.0506   -0.0765
          34   -0.1234    0.0032    0.0296    0.0567   -0.0471    0.0222   -0.0564    0.1131
          35   -0.0067   -0.0012    0.0058    0.0060   -0.0036   -0.0024    0.0056   -0.0130
          36   -0.0180    0.0041   -0.0429   -0.0505    0.0291    0.0157   -0.0319    0.0582
          37    0.0098    0.0276   -0.0076    0.0211   -0.0123    0.0187   -0.0494    0.0947
          38   -0.0060    0.0158   -0.0293   -0.0089   -0.0282    0.0130   -0.0277    0.0604
          39   -0.0011    0.0100   -0.0248   -0.0174   -0.0074    0.0072   -0.0113    0.0288
          40   -0.0071   -0.0010    0.0085    0.0286   -0.0523   -0.0080    0.0090   -0.0414
          41   -0.0022    0.0021    0.0117    0.0335   -0.0541   -0.0049    0.0036   -0.0189
          42   -0.0035   -0.0037   -0.0338   -0.0804    0.1196    0.0158   -0.0151    0.0813
          43    0.0109   -0.0101   -0.0109    0.0051   -0.0008    0.0087   -0.0042    0.0024
          44   -0.0601    0.0992    0.0489   -0.0479   -0.0079   -0.0537    0.0245   -0.0256
          45    0.0334   -0.0576   -0.0198    0.0217    0.0011    0.0210   -0.0136    0.0175
          46   -0.0466   -0.0027   -0.0332    0.0168    0.0170    0.0050    0.0124   -0.0317
          47    0.0065   -0.0124   -0.0188    0.0136    0.0064    0.0016    0.0038   -0.0101
          48    0.1287    0.0139    0.1041   -0.0725   -0.0486   -0.0200   -0.0246    0.0720
          49   -0.0498   -0.1432    0.1180   -0.0247   -0.0044    0.0080   -0.0242    0.0492
          50    0.0011    0.1665   -0.0499    0.1116    0.0820    0.0003    0.0077    0.0015
          51   -0.0733    0.0942    0.0015    0.0891    0.0715    0.0047   -0.0054    0.0319
          52    0.0408    0.0024   -0.0189    0.0232    0.0114   -0.0065    0.0038    0.0106
          53   -0.1181    0.0274    0.0379   -0.1100   -0.0696    0.0200   -0.0098   -0.0601
          54    0.0408   -0.0215   -0.0408    0.0602    0.0346   -0.0110    0.0071    0.0306
          55    0.0122   -0.0060    0.0010    0.0098    0.0213    0.1733   -0.1707   -0.0685
          56   -0.0071    0.0680    0.0260   -0.0240   -0.0024   -0.1454   -0.0634    0.0035
          57    0.0022   -0.0467   -0.0176    0.0153    0.0015    0.0565    0.0379    0.0049
          58    0.0116   -0.0280   -0.0077    0.0109   -0.0080    0.1473    0.1101    0.0228
          59    0.0118   -0.0355   -0.0120    0.0111   -0.0047    0.1187    0.0760    0.0103
          60   -0.0073    0.0896    0.0430   -0.0244   -0.0092    0.1804   -0.0270   -0.0268
          61    0.0020   -0.0147   -0.0085    0.0055    0.0101   -0.0495   -0.0739   -0.0218
          62   -0.0095    0.0469    0.0215   -0.0192   -0.0267    0.1374    0.1772    0.0401
          63    0.0062    0.0065    0.0063   -0.0056   -0.0136   -0.1290    0.1413    0.0643
          64    0.0090   -0.0051    0.0082    0.0044   -0.0013   -0.0044    0.0087   -0.0164
          65   -0.0030   -0.0031   -0.0011   -0.0070    0.0096   -0.0012    0.0034   -0.0099
          66    0.0044    0.0003   -0.0077   -0.0135    0.0118   -0.0015    0.0075   -0.0131
          67   -0.0044   -0.0007    0.0031   -0.0017    0.0104    0.0004    0.0012   -0.0002
          68   -0.0012    0.0022    0.0088    0.0231   -0.0349   -0.0018    0.0010   -0.0020
          69   -0.0022   -0.0009    0.0073    0.0047    0.0098    0.0021   -0.0069    0.0124
          70   -0.0245   -0.0372   -0.0310    0.0119    0.0021   -0.0183    0.0220   -0.0023
          71   -0.0129   -0.0178   -0.0147   -0.0038   -0.0060   -0.0015    0.0033   -0.0050
          72    0.0706    0.1053    0.0814   -0.0265   -0.0022    0.0430   -0.0501    0.0090


   Root No.      41        42        43        44        45        46        47        48

                41 A      42 A      43 A      44 A      45 A      46 A      47 A      48 A   

                1278.1    1303.4    1326.4    1345.0    1353.0    1385.5    1393.3    1429.3
  
           1    0.0003   -0.0041   -0.0003    0.0011    0.0059    0.0020    0.0029    0.0001
           2   -0.0009    0.0153    0.0007   -0.0034   -0.0186   -0.0094   -0.0151   -0.0005
           3   -0.0002    0.0043    0.0006   -0.0014   -0.0071   -0.0019   -0.0018    0.0000
           4    0.0102   -0.0009    0.0010   -0.0110    0.0041   -0.0041    0.0006    0.0038
           5   -0.0100   -0.0012   -0.0115   -0.0019   -0.0031   -0.0026    0.0035   -0.0074
           6   -0.0113    0.0030    0.0070    0.0240   -0.0060    0.0104   -0.0039   -0.0042
           7   -0.0004    0.0020    0.0015   -0.0008   -0.0083   -0.0049   -0.0106   -0.0008
           8   -0.0002   -0.0004    0.0051   -0.0005   -0.0075    0.0000   -0.0044   -0.0003
           9    0.0014   -0.0053   -0.0073    0.0015    0.0208    0.0120    0.0294    0.0017
          10   -0.0073   -0.0007   -0.0043   -0.0054   -0.0008    0.0006    0.0006    0.0069
          11    0.0154   -0.0012   -0.0068    0.0235   -0.0059   -0.0090    0.0081   -0.0042
          12    0.0054    0.0021    0.0141   -0.0048    0.0061    0.0050   -0.0068   -0.0075
          13   -0.0042   -0.0037   -0.0098   -0.0009   -0.0024   -0.0028    0.0031   -0.0235
          14   -0.0055   -0.0106   -0.0293   -0.0032   -0.0040   -0.0083    0.0050    0.0360
          15    0.0054    0.0124    0.0361    0.0038    0.0074    0.0105   -0.0095    0.0223
          16    0.0007   -0.0031   -0.0057    0.0033    0.0012   -0.0048    0.0009    0.0172
          17   -0.0025    0.0051    0.0221    0.0056    0.0068    0.0074   -0.0086   -0.0223
          18   -0.0015    0.0037    0.0069   -0.0094    0.0005    0.0094   -0.0032   -0.0384
          19   -0.0016    0.0029   -0.0072    0.0146   -0.0051   -0.0019    0.0025   -0.0394
          20   -0.0047    0.0017    0.0131   -0.0229    0.0055    0.0080   -0.0066    0.0578
          21    0.0080   -0.0026   -0.0183   -0.0200    0.0007   -0.0109    0.0049    0.0418
          22   -0.0026    0.0027    0.0167    0.0037    0.0024    0.0086   -0.0059    0.0199
          23    0.0016   -0.0057   -0.0111   -0.0108    0.0024   -0.0122    0.0061   -0.0366
          24    0.0001   -0.0025   -0.0144    0.0034   -0.0045   -0.0025    0.0037   -0.0012
          25   -0.0011   -0.0052    0.0058    0.0032    0.0067   -0.0021   -0.0139   -0.0009
          26    0.0019   -0.1330   -0.0180    0.0469    0.2365    0.0626    0.0670   -0.0028
          27   -0.0001    0.0573    0.0053   -0.0190   -0.0878   -0.0174   -0.0091    0.0025
          28   -0.0035    0.0028    0.0099    0.0017    0.0025   -0.0032    0.0006    0.0051
          29    0.0013    0.0099    0.0292    0.0023    0.0079   -0.0109    0.0041   -0.0072
          30   -0.0001   -0.0105   -0.0355   -0.0047   -0.0092    0.0123   -0.0029   -0.0050
          31    0.0061    0.0247   -0.0401   -0.0213   -0.0023   -0.0173   -0.0033    0.0080
          32    0.0035    0.0058   -0.0147    0.0124   -0.0310    0.0034    0.0327    0.0023
          33   -0.0064   -0.0124   -0.0168    0.0085   -0.0696    0.0022    0.0617    0.0049
          34   -0.0081    0.0299    0.0264    0.0158    0.0817    0.0088   -0.0426   -0.0082
          35    0.0001    0.0109   -0.0213    0.0058    0.0274   -0.0165   -0.0374   -0.0006
          36    0.0022   -0.1569    0.1097   -0.0231   -0.1323    0.0344    0.0849    0.0025
          37   -0.0045    0.0001    0.0317    0.0191    0.0614   -0.0063   -0.0767   -0.0094
          38    0.0006   -0.0806    0.0824   -0.0174   -0.0816    0.0514    0.1158    0.0031
          39    0.0007   -0.0473    0.0410   -0.0114   -0.0495    0.0227    0.0596    0.0034
          40    0.0049   -0.1065    0.0113    0.0048   -0.0070   -0.0211   -0.0489   -0.0030
          41    0.0022   -0.0298   -0.0016    0.0040    0.0176    0.0030    0.0018   -0.0005
          42   -0.0117    0.2369   -0.0297   -0.0150    0.0066    0.0411    0.1031    0.0067
          43   -0.0345   -0.0040   -0.0121    0.0126   -0.0037   -0.0058    0.0035    0.0299
          44    0.2046    0.0218    0.0420   -0.1147    0.0155    0.0336   -0.0166   -0.1863
          45   -0.0790   -0.0078   -0.0060    0.0531   -0.0025   -0.0120    0.0020    0.0762
          46   -0.0434    0.0082    0.0150   -0.0505    0.0053    0.0116   -0.0050    0.0238
          47   -0.0189    0.0089    0.0311   -0.0159    0.0084    0.0136   -0.0109   -0.0130
          48    0.1356   -0.0265   -0.0774    0.1497   -0.0274   -0.0451    0.0279   -0.0554
          49   -0.0029   -0.0151    0.0407   -0.0395    0.0253    0.0089   -0.0164    0.0219
          50   -0.0104    0.0012    0.0084    0.0785   -0.0142    0.0067    0.0002   -0.0445
          51    0.0015   -0.0135    0.0071    0.0521   -0.0003   -0.0026   -0.0001   -0.0266
          52    0.0303   -0.0044   -0.0010   -0.0326    0.0092   -0.0055   -0.0010    0.0239
          53   -0.1184    0.0333    0.0330    0.1356   -0.0314    0.0362   -0.0096   -0.0606
          54    0.0683   -0.0224   -0.0433   -0.0794    0.0126   -0.0296    0.0134    0.0196
          55    0.0626    0.0097   -0.0060   -0.0013   -0.0044    0.0267   -0.0088    0.0106
          56   -0.0158   -0.0134   -0.0677   -0.0052   -0.0320    0.1341   -0.0642    0.0405
          57    0.0026    0.0032    0.0250    0.0010    0.0139   -0.0640    0.0309   -0.0229
          58    0.0066   -0.0093   -0.0345   -0.0073   -0.0204    0.0746   -0.0369   -0.0300
          59    0.0080   -0.0023   -0.0120   -0.0046   -0.0105    0.0450   -0.0230   -0.0231
          60    0.0446    0.0169    0.0654    0.0139    0.0333   -0.1291    0.0589    0.0532
          61    0.0025    0.0060    0.0138    0.0019    0.0071   -0.0241    0.0141   -0.0011
          62    0.0024   -0.0084   -0.0258   -0.0041   -0.0187    0.0734   -0.0420    0.0060
          63   -0.0580   -0.0050    0.0436    0.0074    0.0245   -0.1075    0.0439   -0.0057
          64    0.0004    0.0131   -0.0059   -0.0023   -0.0059    0.0072    0.0224    0.0015
          65    0.0008   -0.0190   -0.0017    0.0006   -0.0038   -0.0107   -0.0207   -0.0002
          66    0.0008   -0.0052   -0.0124    0.0011    0.0046   -0.0152   -0.0260    0.0008
          67    0.0001   -0.0045    0.0002   -0.0009   -0.0074   -0.0024    0.0019    0.0012
          68    0.0000    0.0182   -0.0073    0.0011    0.0203    0.0146    0.0315    0.0012
          69   -0.0012   -0.0024    0.0090    0.0053    0.0089   -0.0012   -0.0233   -0.0043
          70    0.0835    0.0124    0.0151    0.0559   -0.0111    0.0173   -0.0093    0.0750
          71    0.0102    0.0019   -0.0093    0.0136   -0.0061    0.0010    0.0018    0.0156
          72   -0.1908   -0.0282   -0.0281   -0.1263    0.0268   -0.0380    0.0182   -0.1745


   Root No.      49        50        51        52        53        54        55        56

                49 A      50 A      51 A      52 A      53 A      54 A      55 A      56 A   

                1498.4    1523.4    1638.7    1647.7    1700.0    1759.6    2619.3    2629.5
  
           1   -0.0003   -0.0000   -0.0025   -0.0037    0.0188    0.0004    0.0001   -0.0000
           2    0.0013   -0.0004    0.0171    0.0251   -0.1239   -0.0025    0.0002    0.0000
           3    0.0004   -0.0000    0.0002    0.0003   -0.0011   -0.0002   -0.0001   -0.0000
           4    0.0242    0.0305    0.0036    0.0085    0.0077   -0.0222   -0.0000   -0.0007
           5   -0.0137   -0.0189   -0.0372    0.0373    0.0081   -0.0494    0.0000    0.0005
           6   -0.0380   -0.0514    0.0258   -0.0502   -0.0221    0.0897   -0.0001    0.0008
           7   -0.0010   -0.0001    0.0104    0.0145   -0.0170    0.0020   -0.0001   -0.0001
           8   -0.0037    0.0008   -0.0160   -0.0233    0.2062    0.0078   -0.0003    0.0000
           9    0.0043   -0.0003   -0.0163   -0.0245   -0.0410   -0.0078    0.0006    0.0001
          10   -0.0081    0.0275    0.0136   -0.0075    0.0003   -0.0051    0.0001   -0.0003
          11    0.0241   -0.0923    0.0475   -0.0086    0.0162   -0.0615   -0.0001    0.0009
          12    0.0029    0.0057   -0.0701    0.0251   -0.0131    0.0584   -0.0002    0.0001
          13   -0.0199   -0.0519   -0.0172    0.0055   -0.0029    0.0064   -0.0023    0.0015
          14   -0.0299    0.1014    0.0157   -0.0156   -0.0054    0.0171   -0.0011   -0.0021
          15    0.0565    0.0368    0.0225   -0.0017    0.0083   -0.0208   -0.0005   -0.0017
          16    0.0092   -0.0201   -0.0157    0.0066   -0.0033    0.0165    0.0000    0.0000
          17    0.0074    0.0365   -0.0479    0.0142   -0.0107    0.0357   -0.0000   -0.0001
          18   -0.0333    0.0319    0.0750   -0.0376    0.0082   -0.0783   -0.0001    0.0000
          19    0.0058    0.0399    0.0052    0.0024    0.0027   -0.0033    0.0000   -0.0001
          20   -0.0239   -0.0572   -0.0026   -0.0005   -0.0017   -0.0157    0.0000    0.0000
          21    0.0128   -0.0480    0.0004    0.0068    0.0025    0.0267    0.0000    0.0000
          22   -0.0131   -0.0205   -0.0010   -0.0095   -0.0061   -0.0002   -0.0000    0.0000
          23    0.0373    0.0200    0.0435   -0.0374   -0.0063    0.0739    0.0000    0.0001
[...]
     431       0.79976     48.35439         49.15414  16.86007   178   %  4.1262
     433       0.79606     48.54986         49.34591  17.05184   179   %  4.1359
     436       0.84001     48.87208         49.71210  17.41803   180   %  4.1512
     438       0.83493     49.06363         49.89855  17.60449   181   %  4.1607
     441       0.78612     49.32097         50.10709  17.81302   182   %  4.1742
     443       0.78432     49.52051         50.30483  18.01076   183   %  4.1836
     446       0.82940     49.87218         50.70157  18.40751   184   %  4.1991
     448       0.82803     50.07942         50.90744  18.61337   185   %  4.2088
     451       0.77562     50.35812         51.13374  18.83967   186   %  4.2225
     453       0.77215     50.57301         51.34516  19.05109   187   %  4.2323
     455       0.77091     50.79860         51.56951  19.27545   188   %  4.2421
     458       0.80938     51.19019         51.99957  19.70550   189   %  4.2582
     460       0.80232     51.42840         52.23073  19.93666   190   %  4.2685
     462       0.80470     51.67770         52.48241  20.18834   191   %  4.2787
     465       0.75980     52.00743         52.76723  20.47316   192   %  4.2934
     467       0.75778     52.26434         53.02212  20.72805   193   %  4.3040
     469       0.75908     52.53250         53.29157  20.99751   194   %  4.3145
     472       0.80471     53.01336         53.81808  21.52401   195   %  4.3318
     474       0.80400     53.29470         54.09870  21.80463   196   %  4.3425
     476       0.80327     53.58634         54.38961  22.09554   197   %  4.3531
     479       0.72942     53.97647         54.70589  22.41182   198   %  4.3685
     481       0.72523     54.29788         55.02311  22.72904   199   %  4.3797
     483       0.72485     54.64255         55.36740  23.07333   200   %  4.3914




           EXCESS KINETIC ENERGY ENTERED INTO SYSTEM =    0.020000
           INITIAL VELOCITY IN DRC (Angstroms/Femtosecond)
         0.00154        -0.00707         0.00171
        -0.00356        -0.00046         0.00894
         0.00320         0.01909        -0.01224
         0.00169        -0.01020         0.00426
        -0.00147         0.00323        -0.00458
         0.00321        -0.00212        -0.01762
         0.02883        -0.00037         0.03242
        -0.00893         0.01342        -0.00623
        -0.01057        -0.01755        -0.01380
         0.00132         0.00059        -0.00018
        -0.42565        -0.07977        -0.16886
        -0.07162        -0.01030        -0.01440
        -0.07352        -0.01830        -0.01535
         0.01010        -0.00951        -0.00165
        -0.00455         0.00420         0.00424
        -0.00432         0.00588        -0.00221
        -0.06929        -0.01449        -0.04824
         0.00115        -0.00435        -0.00483
        -0.00102        -0.00089         0.00297
         0.00082        -0.00228         0.00267
         0.00051        -0.00282        -0.00656
         0.04558         0.00000        -0.01188
        -0.01754        -0.00121         0.02804
         0.00280        -0.00595        -0.00141

 GEOMETRY PRIORITY, STEP = 0.0500 ANGSTROMS



     POINT   POTENTIAL  +  ENERGY LOST   =   TOTAL      ERROR    REF%   MOVEMENT
       1      32.40282      0.00000         32.40282   0.00000     1   %  0.0000
       2      31.96624      0.00000         31.96624  -0.43658     2   %  0.0963
       4      30.45617      0.51061         30.96678  -0.99946     3   %  0.1846
       7      29.27308      1.71258         30.98566  -0.98058     4   %  0.2315
       9      27.63008      3.36307         30.99315  -0.97309     5   %  0.2908
      12      26.53579      4.47392         31.00971  -0.95653     6   %  0.3297
      15      25.09838      5.92132         31.01970  -0.94654     7   %  0.3811
      17      23.56929      7.44563         31.01492  -0.95132     8   %  0.4378
      19      22.82539      8.18633         31.01172  -0.95452     9   %  0.4670
      22      21.28998      9.68058         30.97057  -0.99568    10   %  0.5300
      24      20.14665     10.82785         30.97450  -0.99174    11   %  0.5833
      26      19.19756     11.77836         30.97592  -0.99032    12   %  0.6314
      29      18.32426     12.65206         30.97632  -0.98992    13   %  0.6788
      30      17.91367     13.06244         30.97611  -0.99013    14   %  0.7022
      32      17.07941     13.89953         30.97894  -0.98730    15   %  0.7519
      35      15.99859     14.94923         30.94783  -1.01842    16   %  0.8177
      37      15.41822     15.53255         30.95077  -1.01547    17   %  0.8558
      39      14.85559     16.08998         30.94557  -1.02067    18   %  0.8935
      41      14.22101     16.70311         30.92412  -1.04212    19   %  0.9361
      43      13.67588     17.24665         30.92254  -1.04371    20   %  0.9751
      45      12.84355     18.08213         30.92568  -1.04056    21   %  1.0372
      47      12.28462     18.64480         30.92943  -1.03682    22   %  1.0805
      49      11.75170     19.17724         30.92894  -1.03730    23   %  1.1226
      51      11.23152     19.69957         30.93110  -1.03515    24   %  1.1649
      53      10.73570     20.20732         30.94302  -1.02322    25   %  1.2069
      56      10.24985     20.67003         30.91988  -1.04636    26   %  1.2459
      58       9.73633     21.17903         30.91535  -1.05089    27   %  1.2896
      60       9.28372     21.63157         30.91530  -1.05094    28   %  1.3292
      62       8.86006     22.05620         30.91626  -1.04998    29   %  1.3670
      64       8.45117     22.46903         30.92020  -1.04604    30   %  1.4044
      66       8.06868     22.85328         30.92197  -1.04428    31   %  1.4397
      68       7.76312     23.16293         30.92605  -1.04020    32   %  1.4685
      70       7.35757     23.56746         30.92503  -1.04121    33   %  1.5067
      71       7.19174     23.73374         30.92548  -1.04076    34   %  1.5227
      73       6.72943     24.20698         30.93641  -1.02983    35   %  1.5686
      75       6.42396     24.50950         30.93346  -1.03278    36   %  1.5987
      77       6.13803     24.79512         30.93314  -1.03310    37   %  1.6278
      78       5.99545     24.93863         30.93408  -1.03216    38   %  1.6427
      80       5.58709     25.32778         30.91487  -1.05137    39   %  1.6863
      83       5.34999     25.57655         30.92654  -1.03970    40   %  1.7165
      84       5.10539     25.81176         30.91714  -1.04910    41   %  1.7462
      86       4.87979     26.03883         30.91862  -1.04762    42   %  1.7761
      87       4.77620     26.13929         30.91550  -1.05074    43   %  1.7896
      89       4.55830     26.36350         30.92180  -1.04444    44   %  1.8208
      91       4.26062     26.66139         30.92201  -1.04423    45   %  1.8643
      92       4.07096     26.85066         30.92163  -1.04462    46   %  1.8933
      93       3.88788     27.03331         30.92119  -1.04505    47   %  1.9226
      95       3.71431     27.20628         30.92058  -1.04566    48   %  1.9516
      96       3.54363     27.37263         30.91625  -1.04999    49   %  1.9806
      98       3.38019     27.53211         30.91231  -1.05394    50   %  2.0099
      99       3.22988     27.68477         30.91465  -1.05159    51   %  2.0392
     100       3.08350     27.83406         30.91756  -1.04868    52   %  2.0694
     102       2.93803     27.97562         30.91365  -1.05260    53   %  2.0997
     103       2.80238     28.11033         30.91271  -1.05353    54   %  2.1306
     104       2.66822     28.24650         30.91471  -1.05153    55   %  2.1639
     106       2.54993     28.37004         30.91997  -1.04627    56   %  2.1958
     107       2.43141     28.49423         30.92563  -1.04061    57   %  2.2292
     109       2.32816     28.60971         30.93786  -1.02838    58   %  2.2604
     110       2.22182     28.72459         30.94642  -1.01983    59   %  2.2930
     112       2.13497     28.81948         30.95446  -1.01178    60   %  2.3210
     113       2.07827     28.89013         30.96840  -0.99784    61   %  2.3414
     115       1.99435     29.03074         31.02509  -0.94115    62   %  2.3821
     117       1.89277     29.17542         31.06819  -0.89806    63   %  2.4230
     118       1.84285     29.24186         31.08471  -0.88153    64   %  2.4421
     120       1.75077     29.39605         31.14682  -0.81942    65   %  2.4841
     121       1.67545     29.50484         31.18029  -0.78595    66   %  2.5138
     123       1.62071     29.59073         31.21144  -0.75480    67   %  2.5358
     124       1.55570     29.72205         31.27775  -0.68849    68   %  2.5701
     126       1.48912     29.83367         31.32279  -0.64345    69   %  2.5993
     128       1.42271     29.94207         31.36478  -0.60146    70   %  2.6279
     129       1.36159     30.05073         31.41232  -0.55392    71   %  2.6559
     131       1.30307     30.15952         31.46259  -0.50365    72   %  2.6830
     132       1.23943     30.26632         31.50576  -0.46049    73   %  2.7094
     134       1.18735     30.37633         31.56368  -0.40256    74   %  2.7369
     136       1.13036     30.48502         31.61538  -0.35086    75   %  2.7643
     137       1.08085     30.59473         31.67559  -0.29065    76   %  2.7913
     139       1.03044     30.70203         31.73246  -0.23378    77   %  2.8172
     141       0.97922     30.81077         31.78999  -0.17625    78   %  2.8430
     142       0.92582     30.91878         31.84460  -0.12164    79   %  2.8691
     144       0.88052     31.02753         31.90805  -0.05819    80   %  2.8952
     145       0.83174     31.13691         31.96865   0.00241    81   %  2.9211
     147       0.78385     31.24605         32.02989   0.06365    82   %  2.9462
     149       0.73619     31.35521         32.09140   0.12516    83   %  2.9712
     150       0.69028     31.46291         32.15319   0.18695    84   %  2.9963
     152       0.64029     31.57112         32.21141   0.24517    85   %  3.0217
     154       0.59722     31.67959         32.27681   0.31056    86   %  3.0470
     155       0.54910     31.78873         32.33783   0.37159    87   %  3.0724
     157       0.50867     31.89658         32.40524   0.43900    88   %  3.0971
     159       0.47116     32.00558         32.47674   0.51050    89   %  3.1217
     160       0.43178     32.11376         32.54554   0.57930    90   %  3.1460
     162       0.38836     32.22289         32.61125   0.64501    91   %  3.1707
     164       0.34652     32.33106         32.67759   0.71134    92   %  3.1955
     165       0.30672     32.43968         32.74640   0.78016    93   %  3.2199
     167       0.26895     32.54764         32.81659   0.85035    94   %  3.2444
     169       0.23275     32.65544         32.88818   0.92194    95   %  3.2686
     170       0.19629     32.76340         32.95968   0.99344    96   %  3.2922
     172       0.15879     32.87191         33.03069   1.06445    97   %  3.3165
     174       0.12216     32.97949         33.10165   1.13541    98   %  3.3407
     176       0.08456     33.08696         33.17152   1.20528    99   %  3.3647
     177       0.04910     33.19528         33.24438   1.27814   100   %  3.3883
     179       0.01385     33.30249         33.31633   1.35009   101   %  3.4120
     181      -0.02057     33.41085         33.39028   1.42404   102   %  3.4352
     182      -0.05366     33.51902         33.46536   1.49912   103   %  3.4582
     184      -0.08717     33.62776         33.54059   1.57435   104   %  3.4813
     186      -0.11846     33.73545         33.61700   1.65076   105   %  3.5044
     188      -0.15085     33.84274         33.69189   1.72565   106   %  3.5275
     189      -0.17596     33.94970         33.77373   1.80749   107   %  3.5504
     191      -0.20961     34.05781         33.84819   1.88195   108   %  3.5730
     193      -0.24062     34.16528         33.92466   1.95842   109   %  3.5954
     195      -0.27088     34.27315         34.00226   2.03602   110   %  3.6177
     196      -0.30015     34.38020         34.08004   2.11380   111   %  3.6396
     198      -0.33421     34.48908         34.15487   2.18863   112   %  3.6616
     200      -0.36661     34.59728         34.23068   2.26444   113   %  3.6834
     202      -0.39386     34.70489         34.31103   2.34479   114   %  3.7051
     203      -0.42411     34.81309         34.38898   2.42274   115   %  3.7265
     205      -0.45201     34.92137         34.46936   2.50312   116   %  3.7478
     207      -0.48807     35.02871         34.54064   2.57440   117   %  3.7690
     209      -0.46927     35.13087         34.66160   2.69536   118   %  3.7890
     210      -0.49731     35.24242         34.74511   2.77887   119   %  3.8108
     212      -0.52346     35.35030         34.82684   2.86060   120   %  3.8318
     214      -0.54893     35.45843         34.90950   2.94325   121   %  3.8523
     216      -0.57370     35.56661         34.99291   3.02667   122   %  3.8727
     218      -0.59809     35.67485         35.07676   3.11052   123   %  3.8929
     219      -0.62227     35.78294         35.16067   3.19442   124   %  3.9132
     221      -0.64580     35.89085         35.24505   3.27881   125   %  3.9330
     223      -0.67170     35.99847         35.32677   3.36053   126   %  3.9527
     225      -0.70173     36.10612         35.40439   3.43815   127   %  3.9724
     227      -0.72621     36.21266         35.48644   3.52020   128   %  3.9916
     228      -0.76920     36.27117         35.50197   3.53573   129   %  4.0023
     230      -0.80336     36.43080         35.62745   3.66120   130   %  4.0303
     232      -0.82740     36.53916         35.71176   3.74552   131   %  4.0496
     234      -0.84649     36.64714         35.80065   3.83440   132   %  4.0685
     236      -0.87344     36.75545         35.88201   3.91577   133   %  4.0874
     238      -0.90244     36.86375         35.96131   3.99507   134   %  4.1061
     239      -0.92348     36.97368         36.05020   4.08396   135   %  4.1243
     241      -0.94312     37.08276         36.13964   4.17340   136   %  4.1425
     243      -0.96215     37.19184         36.22969   4.26344   137   %  4.1606
     245      -0.97653     37.30173         36.32521   4.35897   138   %  4.1784
     247      -0.99077     37.41081         36.42003   4.45379   139   %  4.1962
     249      -1.00909     37.51999         36.51090   4.54466   140   %  4.2138
     250      -1.02708     37.62949         36.60241   4.63617   141   %  4.2312
     252      -1.04456     37.73952         36.69496   4.72872   142   %  4.2486
     254      -1.05769     37.84969         36.79200   4.82576   143   %  4.2659
     256      -1.07618     37.95908         36.88290   4.91666   144   %  4.2830
     258      -1.09423     38.06860         36.97437   5.00813   145   %  4.3000
     260      -1.11008     38.17789         37.06781   5.10157   146   %  4.3170
     262      -1.12826     38.28714         37.15888   5.19264   147   %  4.3339
     264      -1.14516     38.39779         37.25263   5.28638   148   %  4.3505
     266      -1.14564     38.50280         37.35716   5.39092   149   %  4.3661
     268      -1.16744     38.61859         37.45115   5.48491   150   %  4.3833
     269      -1.17306     38.67779         37.50473   5.53849   151   %  4.3915
     271      -1.18775     38.79252         37.60477   5.63853   152   %  4.4080
     273      -1.15147     38.90897         37.75750   5.79126   153   %  4.4243
     275      -1.17247     39.06356         37.89108   5.92484   154   %  4.4459
     277      -1.18706     39.17608         37.98902   6.02278   155   %  4.4612
     279      -1.20523     39.28839         38.08316   6.11692   156   %  4.4760
     281      -1.22052     39.40050         38.17998   6.21374   157   %  4.4911
     283      -1.23365     39.51277         38.27912   6.31288   158   %  4.5057
     285      -1.24413     39.62502         38.38088   6.41464   159   %  4.5203
     287      -1.25653     39.73653         38.48000   6.51376   160   %  4.5349
     289      -1.26874     39.84876         38.58002   6.61378   161   %  4.5493
     291      -1.27668     39.96174         38.68506   6.71882   162   %  4.5635
     293      -1.29828     40.07494         38.77666   6.81042   163   %  4.5776
     295      -1.30979     40.18836         38.87858   6.91234   164   %  4.5916
     297      -1.32848     40.29601         38.96753   7.00128   165   %  4.6046
     299      -1.34156     40.41668         39.07512   7.10888   166   %  4.6193
     301      -1.35316     40.53165         39.17848   7.21224   167   %  4.6329
     303      -1.36418     40.64691         39.28273   7.31649   168   %  4.6465
     305      -1.37649     40.76251         39.38602   7.41978   169   %  4.6600
     307      -1.38419     40.87853         39.49434   7.52810   170   %  4.6733
     309      -1.39532     40.99415         39.59884   7.63260   171   %  4.6866
     311      -1.40546     41.11080         39.70534   7.73909   172   %  4.6996
     313      -1.41517     41.22822         39.81305   7.84681   173   %  4.7125
     315      -1.42299     41.33606         39.91306   7.94682   174   %  4.7244
     317      -1.43171     41.46311         40.03140   8.06516   175   %  4.7382
     319      -1.43089     41.56731         40.13642   8.17018   176   %  4.7493
     321      -1.43915     41.68375         40.24460   8.27836   177   %  4.7614
     323      -1.45116     41.82079         40.36963   8.40339   178   %  4.7757
     325      -1.45675     41.91379         40.45704   8.49080   179   %  4.7852
     327      -1.46558     42.02893         40.56335   8.59711   180   %  4.7969
     329      -1.48122     42.17960         40.69838   8.73214   181   %  4.8122
     331      -1.49142     42.30011         40.80869   8.84245   182   %  4.8241
     333      -1.50047     42.42131         40.92083   8.95459   183   %  4.8359
     335      -1.50167     42.48958         40.98790   9.02166   184   %  4.8422
     338      -1.51819     42.66280         41.14461   9.17837   185   %  4.8587
     340      -1.52655     42.77722         41.25067   9.28443   186   %  4.8694
     342      -1.52948     42.89074         41.36127   9.39502   187   %  4.8802
     344      -1.53478     43.00605         41.47128   9.50504   188   %  4.8907
     346      -1.54241     43.11949         41.57708   9.61083   189   %  4.9012
     348      -1.55024     43.23353         41.68329   9.71705   190   %  4.9115
     350      -1.55768     43.34755         41.78987   9.82362   191   %  4.9217
     353      -1.56581     43.52359         41.95778   9.99154   192   %  4.9369
     355      -1.57325     43.63960         42.06634  10.10010   193   %  4.9467
     357      -1.58045     43.75398         42.17354  10.20729   194   %  4.9565
     359      -1.58946     43.86845         42.27899  10.31275   195   %  4.9662
     362      -1.60255     44.03910         42.43655  10.47031   196   %  4.9806
     364      -1.60941     44.15448         42.54506  10.57882   197   %  4.9901
     366      -1.61581     44.26911         42.65329  10.68705   198   %  4.9995
     368      -1.62257     44.38352         42.76095  10.79471   199   %  5.0087
     371      -1.62907     44.55769         42.92862  10.96238   200   %  5.0224



 **********************
 *                    *
 * JOB ENDED NORMALLY *
 *                    *
 **********************



 TOTAL JOB TIME:            32.28 SECONDS

 == MOPAC DONE ==
