 *******************************************************************************
 ** Site#: 37037        For non-commercial use only           Version 21.165W **
 *******************************************************************************
 ** Cite this program as: MOPAC2016, Version: 21.165W, James J. P. Stewart,   **
 ** Stewart Computational Chemistry, web: HTTP://OpenMOPAC.net. Days left: 363**
 *******************************************************************************
 **                                                                           **
 **                                MOPAC2016                                  **
 **                                                                           **
 *******************************************************************************

                              PM7 CALCULATION RESULTS

 *******************************************************************************
 *  CALCULATION DONE:                                Wed Jun 16 12:04:48 2021  *
 *  RESIDUES   - DETERMINE THE SEQUENCE OF RESIDUES
 *  KINETIC=   -     3.000 KCAL KINETIC ENERGY ADDED TO DRC
 *  IRC=N      - INTRINSIC REACTION COORDINATE  1 DEFINED
 *  DRC        - DYNAMIC REACTION COORDINATE CALCULATION
 *  PRECISE    - TIGHTER CRITERIA TO BE USED
 *  T=         - A TIME OF 172800.0 SECONDS REQUESTED
 *  DUMP=N     - RESTART FILE WRITTEN EVERY 7200.0 SECONDS REQUESTED
 *  BIGCYCLES  - DO 1 BIG STEPS
 *  GNORM      - EXIT WHEN GRADIENT NORM DROPS BELOW 0.000
 *  HTML       - WRITE HTML SCRIPT TO GENERATE ANIMATION USING JSMOL
 *             - TO DISPLAY IN PDB FORMAT, ADD "PDBOUT"
 *  T-PRIOR    - TIME TAKES PRIORITY IN DRC
 *******************************************************************************
DRC  HTML T-priority=0.5 precise  bigcycles=1 irc=1* gnorm=0 kinetic=3
  DRC of one complete vibration of Ammonia inverting.

   ATOM   CHEMICAL          X               Y               Z
  NUMBER   SYMBOL      (ANGSTROMS)     (ANGSTROMS)     (ANGSTROMS)
 
     1       N          0.00000000      0.00000000      0.00000000   
     2       H          0.97231410      0.00000000      0.00000000   
     3       H         -0.48615705      0.84204871      0.00000000   
     4       H         -0.48615705     -0.84204871     -0.00000000   
 


          CARTESIAN COORDINATES 

    NO.       ATOM           X           Y           Z

     1         N          0.0000      0.0000      0.0000
     2         H          0.9723      0.0000      0.0000
     3         H         -0.4862      0.8420      0.0000
     4         H         -0.4862     -0.8420     -0.0000

 General Reference for PM7:
 "Optimization of Parameters for Semiempirical Methods VI: More Modifications to the 
 NDDO Approximations and Re-optimization of Parameters", J. J. P. Stewart, J. Mol. Mod., 1:32, 19 (2013)
 https://link.springer.com/article/10.1007/s00894-012-1667-x

           Empirical Formula: H3 N  =     4 atoms



      MOLECULAR POINT GROUP   :   D3h 


      RHF CALCULATION, NO. OF DOUBLY OCCUPIED LEVELS = 4



          HEAT OF FORMATION =      -0.465056 KCALS/MOLE


          GRADIENT NORM =   0.01850

          MOLECULAR WEIGHT =   17.03


          ESTIMATED TIME TO COMPLETE CALCULATION =        0.00 SECONDS

    FOR POINT-GROUP D3h  THERE ARE  12 UNIQUE SYMMETRY FUNCTIONS.

 STEP:   1 TIME =     0.00 SECS, INTEGRAL =      0.00 TIME LEFT: 172800.00
 STEP:   2 TIME =     0.00 SECS, INTEGRAL =      0.00 TIME LEFT: 172800.00
 STEP:   3 TIME =     0.00 SECS, INTEGRAL =      0.00 TIME LEFT: 172800.00
 STEP:   4 TIME =     0.00 SECS, INTEGRAL =      0.00 TIME LEFT: 172800.00
 STEP:   5 TIME =     0.00 SECS, INTEGRAL =      0.00 TIME LEFT: 172800.00
 STEP:   6 TIME =     0.00 SECS, INTEGRAL =      0.00 TIME LEFT: 172800.00
 STEP:   7                       INTEGRAL =      0.00 TIME LEFT: 172800.00
 STEP:   8                       INTEGRAL =      0.00 TIME LEFT: 172800.00
 STEP:   9                       INTEGRAL =      0.00 TIME LEFT: 172800.00
 STEP:  10                       INTEGRAL =      0.00 TIME LEFT: 172800.00
 STEP:  11                       INTEGRAL =      0.00 TIME LEFT: 172800.00
 STEP:  12                       INTEGRAL =      0.00 TIME LEFT: 172800.00


           EXCESS KINETIC ENERGY ENTERED INTO SYSTEM =    3.000000
           INITIAL VELOCITY IN DRC (Angstroms/Femtosecond)
         0.00000         0.00000        -0.06713
        -0.00000        -0.00000         0.31096
        -0.00000        -0.00000         0.31096
        -0.00000        -0.00000         0.31096

 TIME PRIORITY, INTERVAL = 0.50 FEMTOSECONDS



 FEMTOSECONDS  POINT  POTENTIAL + KINETIC  =   TOTAL     ERROR    REF%   MOVEMENT
     0.000       1    -0.46506    3.00000     2.53494   0.00000     1   %  0.0000
     0.500       5    -0.48465    3.01870     2.53405  -0.00089     2   %  0.0421
     1.000       5    -0.54350    3.08294     2.53944   0.00450     3   %  0.0844
     1.500      12    -0.64194    3.17692     2.53498   0.00004     4   %  0.1273
     2.000      14    -0.78021    3.31523     2.53502   0.00008     5   %  0.1710
     2.500      17    -0.95857    3.49365     2.53508   0.00014     6   %  0.2157
     3.000      19    -1.17690    3.71207     2.53518   0.00024     7   %  0.2617
     3.500      21    -1.43430    3.96964     2.53534   0.00040     8   %  0.3092
     4.000      22    -1.72858    4.26417     2.53559   0.00065     9   %  0.3584
     4.500      24    -2.05570    4.59167     2.53597   0.00103    10   %  0.4094
     5.000      25    -2.40828    4.94480     2.53652   0.00158    11   %  0.4623
     5.500      27    -2.77676    5.31404     2.53728   0.00235    12   %  0.5171
     6.000      28    -3.14545    5.68374     2.53830   0.00337    13   %  0.5739
     6.500      29    -3.49525    6.03527     2.54002   0.00509    14   %  0.6325
     7.000      32    -3.80358    6.33947     2.53589   0.00096    15   %  0.6926
     7.500      34    -4.04399    6.57933     2.53534   0.00041    16   %  0.7540
     8.000      38    -4.18879    6.72392     2.53513   0.00021    17   %  0.8163
     8.500      42    -4.21187    6.74690     2.53503   0.00011    18   %  0.8789
     9.000      47    -4.09182    6.62680     2.53498   0.00006    19   %  0.9412
     9.500      52    -3.81532    6.35027     2.53496   0.00004    20   %  1.0025
    10.000      57    -3.38010    5.91504     2.53493   0.00002    21   %  1.0620
    10.500      62    -2.79698    5.33189     2.53491   0.00000    22   %  1.1189
    11.000      67    -2.09035    4.62524     2.53489  -0.00002    23   %  1.1722
    11.500      72    -1.29722    3.83209     2.53487  -0.00004    24   %  1.2213
    12.000      77    -0.46458    2.99943     2.53485  -0.00006    25   %  1.2651
    12.500      81     0.35439    2.18042     2.53481  -0.00009    26   %  1.3030
    13.000      84     1.10443    1.43032     2.53475  -0.00015    27   %  1.3343
    13.500      87     1.73334    0.80134     2.53468  -0.00022    28   %  1.3585
    14.000      90     2.19599    0.33865     2.53463  -0.00027    29   %  1.3751
    14.500      93     2.45776    0.07685     2.53461  -0.00030    30   %  1.3837
    15.000      95     2.49824    0.03669     2.53492   0.00002    31   %  1.3844
    15.500      97     2.31204    0.22301     2.53505   0.00015    32   %  1.3769
    16.000      98     1.91125    0.62396     2.53521   0.00031    33   %  1.3616
    16.500     101     1.32358    1.21152     2.53510   0.00020    34   %  1.3387
    17.000     104     0.59129    1.94375     2.53504   0.00014    35   %  1.3086
    17.500     108    -0.23309    2.76808     2.53499   0.00009    36   %  1.2720
    18.000     113    -1.09040    3.62536     2.53496   0.00006    37   %  1.2295
    18.500     118    -1.92058    4.45552     2.53494   0.00004    38   %  1.1818
    19.000     123    -2.66852    5.20343     2.53492   0.00002    39   %  1.1299
    19.500     128    -3.28920    5.82409     2.53490   0.00000    40   %  1.0745
    20.000     133    -3.75185    6.28672     2.53487  -0.00002    41   %  1.0167
    20.500     138    -4.04218    6.57703     2.53485  -0.00004    42   %  0.9570
    21.000     143    -4.16248    6.69729     2.53481  -0.00008    43   %  0.8965
    21.500     147    -4.12955    6.66430     2.53476  -0.00013    44   %  0.8356
    22.000     151    -3.97103    6.50570     2.53467  -0.00021    45   %  0.7749
    22.500     154    -3.72045    6.25498     2.53453  -0.00035    46   %  0.7150
    23.000     157    -3.41232    5.94669     2.53437  -0.00051    47   %  0.6561
    23.500     159    -3.07739    5.61160     2.53422  -0.00066    48   %  0.5984
    24.000     161    -2.73958    5.27366     2.53408  -0.00079    49   %  0.5421
    24.500     163    -2.41420    4.94818     2.53398  -0.00090    50   %  0.4874
    25.000     165    -2.10847    4.64241     2.53394  -0.00093    51   %  0.4343
    25.500     167    -1.82314    4.35748     2.53434  -0.00053    52   %  0.3829
    26.000     170    -1.55572    4.09023     2.53452  -0.00035    53   %  0.3333
    26.500     172    -1.30376    3.83838     2.53462  -0.00025    54   %  0.2854
    27.000     175    -1.06762    3.60226     2.53463  -0.00023    55   %  0.2392
    27.500     178    -0.85192    3.38653     2.53462  -0.00025    56   %  0.1949
    28.000     180    -0.66505    3.19962     2.53458  -0.00028    57   %  0.1521
    28.500     182    -0.51760    3.05214     2.53454  -0.00032    58   %  0.1111
    29.000     184    -0.41913    2.95368     2.53455  -0.00031    59   %  0.0719
    29.500     186    -0.37561    2.91023     2.53462  -0.00024    60   %  0.0376




           EXCESS KINETIC ENERGY ENTERED INTO SYSTEM =    3.000000
           INITIAL VELOCITY IN DRC (Angstroms/Femtosecond)
        -0.00000        -0.00000         0.06713
         0.00000         0.00000        -0.31096
         0.00000         0.00000        -0.31096
         0.00000         0.00000        -0.31096

 TIME PRIORITY, INTERVAL = 0.50 FEMTOSECONDS



 FEMTOSECONDS  POINT  POTENTIAL + KINETIC  =   TOTAL     ERROR    REF%   MOVEMENT
     0.000       1    -0.46506    3.00000     2.53494   0.00000     1   %  0.0000
     0.500       5    -0.48465    3.01873     2.53408  -0.00086     2   %  0.0421
     1.000       5    -0.54350    3.08279     2.53929   0.00435     3   %  0.0844
     1.500      12    -0.64194    3.17692     2.53498   0.00004     4   %  0.1273
     2.000      14    -0.78021    3.31523     2.53502   0.00008     5   %  0.1710
     2.500      17    -0.95857    3.49365     2.53508   0.00014     6   %  0.2157
     3.000      19    -1.17690    3.71208     2.53518   0.00024     7   %  0.2617
     3.500      21    -1.43430    3.96964     2.53534   0.00040     8   %  0.3092
     4.000      22    -1.72859    4.26418     2.53559   0.00065     9   %  0.3584
     4.500      24    -2.05570    4.59167     2.53597   0.00103    10   %  0.4094
     5.000      25    -2.40829    4.94480     2.53652   0.00158    11   %  0.4623
     5.500      27    -2.77676    5.31404     2.53728   0.00235    12   %  0.5171
     6.000      28    -3.14545    5.68375     2.53830   0.00337    13   %  0.5739
     6.500      29    -3.49525    6.03527     2.54002   0.00509    14   %  0.6325
     7.000      32    -3.80359    6.33947     2.53589   0.00096    15   %  0.6926
     7.500      34    -4.04399    6.57933     2.53534   0.00041    16   %  0.7540
     8.000      38    -4.18879    6.72392     2.53513   0.00021    17   %  0.8163
     8.500      42    -4.21187    6.74690     2.53503   0.00011    18   %  0.8789
     9.000      47    -4.09182    6.62680     2.53498   0.00006    19   %  0.9412
     9.500      52    -3.81531    6.35027     2.53496   0.00004    20   %  1.0025
    10.000      57    -3.38010    5.91503     2.53493   0.00002    21   %  1.0620
    10.500      62    -2.79697    5.33188     2.53491   0.00000    22   %  1.1189
    11.000      67    -2.09035    4.62523     2.53489  -0.00002    23   %  1.1722
    11.500      72    -1.29721    3.83208     2.53487  -0.00004    24   %  1.2213
    12.000      77    -0.46457    2.99942     2.53485  -0.00006    25   %  1.2651
    12.500      81     0.35440    2.18042     2.53481  -0.00009    26   %  1.3030
    13.000      84     1.10444    1.43031     2.53475  -0.00015    27   %  1.3343
    13.500      87     1.73335    0.80134     2.53468  -0.00022    28   %  1.3585
    14.000      90     2.19599    0.33864     2.53463  -0.00027    29   %  1.3751
    14.500      93     2.45776    0.07684     2.53461  -0.00030    30   %  1.3837
    15.000      95     2.49824    0.03669     2.53492   0.00002    31   %  1.3844
    15.500      97     2.31204    0.22301     2.53505   0.00015    32   %  1.3769
    16.000      98     1.91124    0.62397     2.53521   0.00031    33   %  1.3616
    16.500     101     1.32357    1.21153     2.53510   0.00020    34   %  1.3387
    17.000     104     0.59128    1.94376     2.53504   0.00014    35   %  1.3086
    17.500     108    -0.23310    2.76809     2.53499   0.00009    36   %  1.2720
    18.000     113    -1.09041    3.62537     2.53496   0.00006    37   %  1.2295
    18.500     118    -1.92059    4.45552     2.53494   0.00004    38   %  1.1818
    19.000     123    -2.66852    5.20344     2.53492   0.00002    39   %  1.1299
    19.500     128    -3.28920    5.82410     2.53489   0.00000    40   %  1.0745
    20.000     133    -3.75185    6.28672     2.53487  -0.00002    41   %  1.0167
    20.500     138    -4.04218    6.57703     2.53485  -0.00004    42   %  0.9570
    21.000     143    -4.16248    6.69729     2.53481  -0.00008    43   %  0.8965
    21.500     147    -4.12955    6.66430     2.53476  -0.00013    44   %  0.8356
    22.000     151    -3.97103    6.50570     2.53467  -0.00021    45   %  0.7749
    22.500     154    -3.72045    6.25498     2.53453  -0.00035    46   %  0.7150
    23.000     157    -3.41231    5.94669     2.53437  -0.00051    47   %  0.6561
    23.500     159    -3.07738    5.61160     2.53422  -0.00066    48   %  0.5984
    24.000     161    -2.73958    5.27366     2.53408  -0.00079    49   %  0.5421
    24.500     163    -2.41420    4.94818     2.53398  -0.00090    50   %  0.4874
    25.000     165    -2.10847    4.64241     2.53394  -0.00093    51   %  0.4343
    25.500     167    -1.82314    4.35748     2.53434  -0.00053    52   %  0.3829
    26.000     170    -1.55571    4.09023     2.53452  -0.00035    53   %  0.3332
    26.500     172    -1.30376    3.83837     2.53462  -0.00025    54   %  0.2854
    27.000     175    -1.06762    3.60225     2.53463  -0.00023    55   %  0.2392
    27.500     178    -0.85192    3.38653     2.53461  -0.00025    56   %  0.1949
    28.000     180    -0.66504    3.19962     2.53458  -0.00028    57   %  0.1521
    28.500     182    -0.51759    3.05213     2.53454  -0.00032    58   %  0.1111
    29.000     184    -0.41913    2.95368     2.53455  -0.00031    59   %  0.0719
    29.500     186    -0.37561    2.91023     2.53462  -0.00024    60   %  0.0376



 **********************
 *                    *
 * JOB ENDED NORMALLY *
 *                    *
 **********************



 TOTAL JOB TIME:             5.55 SECONDS

 == MOPAC DONE ==
