 *******************************************************************************
 ** Site#: 37037        For non-commercial use only           Version 21.157W **
 *******************************************************************************
 ** Cite this program as: MOPAC2016, Version: 21.157W, James J. P. Stewart,   **
 ** Stewart Computational Chemistry, web: HTTP://OpenMOPAC.net. Days left: 364**
 *******************************************************************************
 **                                                                           **
 **                                MOPAC2016                                  **
 **                                                                           **
 *******************************************************************************

                              PM7 CALCULATION RESULTS

 *******************************************************************************
 *  CALCULATION DONE:                                Mon Jun  7 08:52:53 2021  *
 *  SYMMETRY   - SYMMETRY CONDITIONS TO BE IMPOSED
 *  T=         - A TIME OF 172800.0 SECONDS REQUESTED
 *  DUMP=N     - RESTART FILE WRITTEN EVERY 7200.0 SECONDS REQUESTED
 *******************************************************************************



                    PARAMETER DEPENDENCE DATA

        REFERENCE ATOM      FUNCTION NO.    DEPENDENT ATOM(S)
            2                  1               3    4

             DESCRIPTIONS OF THE FUNCTIONS USED
   1      BOND LENGTH    IS SET EQUAL TO THE REFERENCE BOND LENGTH   
 
 symmetry
 Optimize NH3 inversion geometry (D3h)

  ATOM    CHEMICAL      BOND LENGTH      BOND ANGLE     TWIST ANGLE 
 NUMBER    SYMBOL       (ANGSTROMS)      (DEGREES)       (DEGREES) 
   (I)                     NA:I           NB:NA:I       NC:NB:NA:I       NA    NB    NC 
     1       N          0.00000000       0.0000000       0.0000000        0     0     0
     2       H          1.00000000  *    0.0000000       0.0000000        1     0     0
     3       H          1.00000000     120.0000000       0.0000000        1     2     0
     4       H          1.00000000     120.0000000     180.0000000        1     2     3
 


          CARTESIAN COORDINATES 

    NO.       ATOM           X           Y           Z

     1         N          0.0000      0.0000      0.0000
     2         H          1.0000      0.0000      0.0000
     3         H         -0.5000      0.8660      0.0000
     4         H         -0.5000     -0.8660     -0.0000

 General Reference for PM7:
 "Optimization of Parameters for Semiempirical Methods VI: More Modifications to the 
 NDDO Approximations and Re-optimization of Parameters", J. J. P. Stewart, J. Mol. Mod., 1:32, 19 (2013)
 https://link.springer.com/article/10.1007/s00894-012-1667-x

           Empirical Formula: H3 N  =     4 atoms



      MOLECULAR POINT GROUP   :   D3h 


      RHF CALCULATION, NO. OF DOUBLY OCCUPIED LEVELS = 4


          Geometry optimization using BFGS
 ONLY ONE VARIABLE, THEREFORE ENERGY A MINIMUM

 -------------------------------------------------------------------------------
 symmetry
 Optimize NH3 inversion geometry (D3h)



     HEAT OF FORMATION MINIMIZED IN ONE LINE SEARCH           
     SCF FIELD WAS ACHIEVED                                   


                              PM7 CALCULATION
                                                       MOPAC2016 (Version: 21.157W)
                                                       Mon Jun  7 08:52:53 2021
                                                       No. of days remaining = 364




          FINAL HEAT OF FORMATION =         -0.46506 KCAL/MOL =      -1.94579 KJ/MOL


          TOTAL ENERGY            =       -226.58830 EV
          ELECTRONIC ENERGY       =       -416.68802 EV  POINT GROUP:     D3h 
          CORE-CORE REPULSION     =        190.09973 EV
          COSMO AREA              =         47.06 SQUARE ANGSTROMS
          COSMO VOLUME            =         29.43 CUBIC ANGSTROMS

          IONIZATION POTENTIAL    =          9.278527 EV
          HOMO LUMO ENERGIES (EV) =         -9.279  4.447
          NO. OF FILLED LEVELS    =          4
          MOLECULAR WEIGHT        =         17.0304

          MOLECULAR DIMENSIONS (Angstroms)

            Atom       Atom       Distance
            H     4    H     3     1.68410
            H     3    H     2     1.45847
            N     1    H     2     0.00000


          SCF CALCULATIONS        =          7
 
          WALL-CLOCK TIME         =          0.031 SECONDS
          COMPUTATION TIME        =          0.031 SECONDS




  ATOM    CHEMICAL      BOND LENGTH      BOND ANGLE     TWIST ANGLE 
 NUMBER    SYMBOL       (ANGSTROMS)      (DEGREES)       (DEGREES) 
   (I)                     NA:I           NB:NA:I       NC:NB:NA:I       NA    NB    NC 
     1       N          0.00000000       0.0000000       0.0000000        0     0     0
     2       H          0.97231412  *    0.0000000       0.0000000        1     0     0
     3       H          0.97231412     120.0000000       0.0000000        1     2     0
     4       H          0.97231412     120.0000000     180.0000000        1     2     3

                             CARTESIAN COORDINATES

   1    N        0.000000000     0.000000000     0.000000000
   2    H        0.972314115     0.000000000     0.000000000
   3    H       -0.486157058     0.842048724     0.000000000
   4    H       -0.486157058    -0.842048724    -0.000000000


           Empirical Formula: H3 N  =     4 atoms



      MOLECULAR POINT GROUP   :   D3h 


                  EIGENVALUES  
 -35.96340 -16.62190 -16.62190  -9.27853   4.44743   7.87491   7.87491


              NET ATOMIC CHARGES AND DIPOLE CONTRIBUTIONS

  ATOM NO.   TYPE          CHARGE      No. of ELECS.   s-Pop       p-Pop       
    1          N          -0.881497        5.8815     1.50092     4.38057
    2          H           0.293832        0.7062     0.70617
    3          H           0.293832        0.7062     0.70617
    4          H           0.293832        0.7062     0.70617
 DIPOLE           X         Y         Z       TOTAL
 POINT-CHG.    -0.000    -0.000    -0.000     0.000
 HYBRID         0.000     0.000    -0.000     0.000
 SUM           -0.000    -0.000    -0.000     0.000


          ATOMIC ORBITAL ELECTRON POPULATIONS

     Atom    s        px        py        pz   
    1  N   1.50092   1.19029   1.19029   2.00000
    2  H   0.70617
    3  H   0.70617
    4  H   0.70617
 *******************************************************************************
 ** Site#: 37037        For non-commercial use only           Version 21.157W **
 *******************************************************************************
 ** Cite this program as: MOPAC2016, Version: 21.157W, James J. P. Stewart,   **
 ** Stewart Computational Chemistry, web: HTTP://OpenMOPAC.net. Days left: 364**
 *******************************************************************************
 **                                                                           **
 **                                MOPAC2016                                  **
 **                                                                           **
 *******************************************************************************

                              PM7 CALCULATION RESULTS

 *******************************************************************************
 *  CALCULATION DONE:                                Mon Jun  7 08:52:53 2021  *
 *  OPT        - OPTIMIZE COORDINATES OF ALL ATOMS
 *  OLDGEO     - PREVIOUS GEOMETRY TO BE USED
 *  FORCE      - FORCE CALCULATION SPECIFIED
 *  T=         - A TIME OF 172800.0 SECONDS REQUESTED
 *  DUMP=N     - RESTART FILE WRITTEN EVERY 7200.0 SECONDS REQUESTED
 *  ISOTOPE    - SAVE THE FORCE MATRIX FOR USE LATER
 *******************************************************************************
oldgeo force opt isotope
 Check for imaginary frequency

  ATOM    CHEMICAL      BOND LENGTH      BOND ANGLE     TWIST ANGLE 
 NUMBER    SYMBOL       (ANGSTROMS)      (DEGREES)       (DEGREES) 
   (I)                     NA:I           NB:NA:I       NC:NB:NA:I       NA    NB    NC 
     1       N          0.00000000       0.0000000       0.0000000        0     0     0
     2       H          0.97231412  *    0.0000000       0.0000000        1     0     0
     3       H          0.97231412  *  120.0000000  *    0.0000000        1     2     0
     4       H          0.97231412  *  120.0000000  *  180.0000000  *     1     2     3
 


          CARTESIAN COORDINATES 

    NO.       ATOM           X           Y           Z

     1         N          0.0000      0.0000      0.0000
     2         H          0.9723      0.0000      0.0000
     3         H         -0.4862      0.8420      0.0000
     4         H         -0.4862     -0.8420     -0.0000

 General Reference for PM7:
 "Optimization of Parameters for Semiempirical Methods VI: More Modifications to the 
 NDDO Approximations and Re-optimization of Parameters", J. J. P. Stewart, J. Mol. Mod., 1:32, 19 (2013)
 https://link.springer.com/article/10.1007/s00894-012-1667-x

           Empirical Formula: H3 N  =     4 atoms



      MOLECULAR POINT GROUP   :   D3h 


      RHF CALCULATION, NO. OF DOUBLY OCCUPIED LEVELS = 4



          HEAT OF FORMATION =      -0.465056 KCALS/MOLE


          CARTESIAN COORDINATE DERIVATIVES

   NUMBER  ATOM         X            Y            Z

     1       N      0.000001    -0.000000    -0.000001
     2       H      0.010486     0.000000     0.000000
     3       H     -0.005243     0.009081     0.000000
     4       H     -0.005243    -0.009081     0.000000
 


          GRADIENT NORM =   0.01816

          MOLECULAR WEIGHT =   17.03



          ROTATIONAL CONSTANTS IN CM(-1)

          A =   11.79436786   B =   11.79436785   C =    5.89718393



           PRINCIPAL MOMENTS OF INERTIA IN UNITS OF 10**(-40)*GRAM-CM**2

          A =        2.3734   B =        2.3734   C =        4.7468


          ORIENTATION OF MOLECULE IN FORCE CALCULATION

    NO.       ATOM         X         Y         Z

     1          N      -0.0000   -0.0000    0.0000
     2          H       0.9723   -0.0000    0.0000
     3          H      -0.4862    0.8420    0.0000
     4          H      -0.4862   -0.8420   -0.0000


    FIRST DERIVATIVES WILL BE USED IN THE CALCULATION OF SECOND DERIVATIVES

          ESTIMATED TIME TO COMPLETE CALCULATION =        0.00 SECONDS

    FOR POINT-GROUP D3h  THERE ARE  12 UNIQUE SYMMETRY FUNCTIONS.

 STEP:   1 TIME =     0.00 SECS, INTEGRAL =      0.00 TIME LEFT: 172800.00
 STEP:   2 TIME =     0.00 SECS, INTEGRAL =      0.00 TIME LEFT: 172800.00
 STEP:   3 TIME =     0.00 SECS, INTEGRAL =      0.00 TIME LEFT: 172800.00
 STEP:   4 TIME =     0.00 SECS, INTEGRAL =      0.00 TIME LEFT: 172800.00
 STEP:   5 TIME =     0.00 SECS, INTEGRAL =      0.00 TIME LEFT: 172800.00
 STEP:   6 TIME =     0.00 SECS, INTEGRAL =      0.00 TIME LEFT: 172800.00
 STEP:   7                       INTEGRAL =      0.00 TIME LEFT: 172800.00
 STEP:   8                       INTEGRAL =      0.00 TIME LEFT: 172800.00
 STEP:   9                       INTEGRAL =      0.00 TIME LEFT: 172800.00
 STEP:  10                       INTEGRAL =      0.00 TIME LEFT: 172800.00
 STEP:  11                       INTEGRAL =      0.00 TIME LEFT: 172800.00
 STEP:  12                       INTEGRAL =      0.00 TIME LEFT: 172800.00

(To convert to Hartree/Bohr^2, multiply by (10^(-21) x N x a0^2)/(4.184 x 627.51) =  0.0642)


           FORCE MATRIX IN MILLIDYNES/ANGSTROM


                  N  1       H  2       H  3       H  4
 ------------------------------------------------------
     N    1  11.231409
     H    2   4.316358   4.782409
     H    3   4.316614   0.606804   4.782409
     H    4   4.316627   0.606864   0.606804   4.782409


          HEAT OF FORMATION =      -0.465056 KCALS/MOLE

          ZERO POINT ENERGY      17.103 KCAL/MOL

         NOTE: SYSTEM IS NOT A GROUND STATE, THEREFORE ZERO POINT
         ENERGY IS NOT MEANINGFULL. ZERO POINT ENERGY PRINTED
         DOES NOT INCLUDE THE  1 IMAGINARY FREQUENCIES


           NORMAL COORDINATE ANALYSIS (Total motion = 1 Angstrom)


   Root No.       1         2         3         4         5         6

                 1 A2"     1 E'      1 E'      2 E'      2 E'      1 A1' 

                -854.9    1640.8    1640.8    2887.9    2887.9    2906.5
  
           1    0.0000   -0.0150   -0.0489   -0.0475   -0.0111    0.0000
           2    0.0000   -0.0497    0.0148    0.0109   -0.0483    0.0000
           3   -0.0671   -0.0000   -0.0000   -0.0000   -0.0000   -0.0000
           4   -0.0000   -0.0039   -0.0128    0.4733    0.1101    0.3333
           5   -0.0000    0.4736   -0.1407    0.0076   -0.0338    0.0000
           6    0.3110    0.0000   -0.0000    0.0000   -0.0000    0.0000
           7   -0.0000    0.3169    0.2838    0.1436   -0.2015   -0.1667
           8   -0.0000    0.1722    0.1751   -0.2986    0.3018    0.2887
           9    0.3110    0.0000    0.0000   -0.0000    0.0000    0.0000
          10   -0.0000   -0.1045    0.4090    0.0433    0.2450   -0.1667
          11   -0.0000    0.0451   -0.2397    0.1401    0.4039   -0.2887
          12    0.3110    0.0000    0.0000    0.0000    0.0000   -0.0000


           MASS-WEIGHTED COORDINATE ANALYSIS (NORMAL COORDINATES)


   Root No.       1         2         3         4         5         6

                 1 A2"     1 E'      1 E'      2 E'      2 E'      1 A1' 

                -854.9    1640.8    1640.8    2887.9    2887.9    2906.5
  
           1    0.0000   -0.0879   -0.2913   -0.2842   -0.0650    0.0000
           2    0.0000   -0.2913    0.0879    0.0650   -0.2842    0.0000
           3   -0.4214   -0.0000   -0.0000   -0.0000   -0.0000   -0.0000
           4   -0.0000   -0.0062   -0.0204    0.7595    0.1737    0.5774
           5   -0.0000    0.7443   -0.2246    0.0122   -0.0533    0.0000
           6    0.5236    0.0000   -0.0000    0.0000   -0.0000    0.0000
           7   -0.0000    0.4981    0.4532    0.2304   -0.3177   -0.2887
           8   -0.0000    0.2707    0.2796   -0.4792    0.4758    0.5000
           9    0.5236    0.0000    0.0000   -0.0000    0.0000    0.0000
          10   -0.0000   -0.1642    0.6531    0.0694    0.3862   -0.2887
          11   -0.0000    0.0708   -0.3827    0.2248    0.6368   -0.5000
          12    0.5236    0.0000    0.0000    0.0000    0.0000   -0.0000


          DESCRIPTION OF VIBRATIONS


 VIBRATION          1    1A2"        ATOM PAIR     ENERGY CONTRIBUTION    RADIAL
 FREQUENCY          -854.86         N 1 -- H 3         -33.3% (-45.3%)      0.0%
 TRANSITION DIPOLE   2.9276         N 1 -- H 4         -33.3% (-45.3%)      0.0%
 TRAVEL (Ang.)       0.3434         N 1 -- H 2         -33.3% (-45.3%)      0.0%
 REDUCED MASS        0.6688
 EFFECTIVE MASS      2.2206
 FORCE CONSTANT     -0.2880

 VIBRATION          3    1E'         ATOM PAIR     ENERGY CONTRIBUTION    RADIAL
 FREQUENCY          1640.77         N 1 -- H 4         +60.3% ( 68.4%)      0.4%
 TRANSITION DIPOLE   0.6379         N 1 -- H 3         +31.5% ( 49.4%)      7.2%
 TRAVEL (Ang.)       0.2773         N 1 -- H 2          +8.3% ( 25.3%)     42.9%
 REDUCED MASS        0.5346
 EFFECTIVE MASS      1.7640
 FORCE CONSTANT      0.8479

 VIBRATION          5    2E'         ATOM PAIR     ENERGY CONTRIBUTION    RADIAL
 FREQUENCY          2887.93         N 1 -- H 4         +60.2% ( 79.2%)     99.5%
 TRANSITION DIPOLE   1.1183         N 1 -- H 3         +35.7% ( 61.0%)     96.0%
 TRAVEL (Ang.)       0.2118         N 1 -- H 2          +4.0% ( 20.5%)     51.7%
 REDUCED MASS        0.5203
 EFFECTIVE MASS      1.5484
 FORCE CONSTANT      2.5569

 VIBRATION          6    1A1'        ATOM PAIR     ENERGY CONTRIBUTION    RADIAL
 FREQUENCY          2906.52         N 1 -- H 4         +33.3% ( 55.8%)    100.0%
 TRANSITION DIPOLE   0.0000         N 1 -- H 3         +33.3% ( 55.8%)    100.0%
 TRAVEL (Ang.)       0.2628         N 1 -- H 2         +33.3% ( 55.8%)    100.0%
 REDUCED MASS        0.3360
 EFFECTIVE MASS      1.0079
 FORCE CONSTANT      1.6722

           FORCE CONSTANT IN INTERNAL COORDINATES (Millidynes/A)

    ATOM   CHEMICAL  BOND LENGTH      BOND ANGLE     TWIST ANGLE
   NUMBER   SYMBOL  FORCE CONSTANT  FORCE CONSTANT  FORCE CONSTANT

      1       N        0.000000        0.000000        0.000000
      2       H        4.679384        0.000000        0.000000
      3       H        4.679384        0.927112        0.000000
      4       H        4.679384        0.927112       -0.085274
 *******************************************************************************
 ** Site#: 37037        For non-commercial use only           Version 21.157W **
 *******************************************************************************
 ** Cite this program as: MOPAC2016, Version: 21.157W, James J. P. Stewart,   **
 ** Stewart Computational Chemistry, web: HTTP://OpenMOPAC.net. Days left: 364**
 *******************************************************************************
 **                                                                           **
 **                                MOPAC2016                                  **
 **                                                                           **
 *******************************************************************************

                              PM7 CALCULATION RESULTS

 *******************************************************************************
 *  CALCULATION DONE:                                Mon Jun  7 08:52:53 2021  *
 *  IRC=N      - INTRINSIC REACTION COORDINATE  1 DEFINED
 *  OLDGEO     - PREVIOUS GEOMETRY TO BE USED
 *  PRECISE    - TIGHTER CRITERIA TO BE USED
 *  RESTART    - CALCULATION RESTARTED
 *  T=         - A TIME OF 172800.0 SECONDS REQUESTED
 *  DUMP=N     - RESTART FILE WRITTEN EVERY 7200.0 SECONDS REQUESTED
 *  HTML       - WRITE HTML SCRIPT TO GENERATE ANIMATION USING JSMOL
 *             - TO DISPLAY IN PDB FORMAT, ADD "PDBOUT"
 *  X-PRIOR    - GEOMETRY CHANGES TAKE PRIORITY IN DRC
 *******************************************************************************
oldgeo irc=1* restart html x-priority=0.02 precise
 Map IRC for ammonia inversion

  ATOM    CHEMICAL      BOND LENGTH      BOND ANGLE     TWIST ANGLE 
 NUMBER    SYMBOL       (ANGSTROMS)      (DEGREES)       (DEGREES) 
   (I)                     NA:I           NB:NA:I       NC:NB:NA:I       NA    NB    NC 
     1       N          0.00000000       0.0000000       0.0000000        0     0     0
     2       H          0.97231412  *    0.0000000       0.0000000        1     0     0
     3       H          0.97231412  *  120.0000000  *    0.0000000        1     2     0
     4       H          0.97231412  *  120.0000000  *  180.0000000  *     1     2     3
 


          CARTESIAN COORDINATES 

    NO.       ATOM           X           Y           Z

     1         N          0.0000      0.0000      0.0000
     2         H          0.9723      0.0000      0.0000
     3         H         -0.4862      0.8420      0.0000
     4         H         -0.4862     -0.8420     -0.0000

 General Reference for PM7:
 "Optimization of Parameters for Semiempirical Methods VI: More Modifications to the 
 NDDO Approximations and Re-optimization of Parameters", J. J. P. Stewart, J. Mol. Mod., 1:32, 19 (2013)
 https://link.springer.com/article/10.1007/s00894-012-1667-x

           Empirical Formula: H3 N  =     4 atoms



      MOLECULAR POINT GROUP   :   D3h 


      RHF CALCULATION, NO. OF DOUBLY OCCUPIED LEVELS = 4


          MOLECULAR WEIGHT =   17.03


          ESTIMATED TIME TO COMPLETE CALCULATION =        0.00 SECONDS

          TIME USED UP TO RESTART =                  0.00

    FOR POINT-GROUP D3h  THERE ARE  12 UNIQUE SYMMETRY FUNCTIONS.

           INITIAL VELOCITY IN DRC (Angstroms/Femtosecond)
         0.00000         0.00000        -0.06713
        -0.00000        -0.00000         0.31096
        -0.00000        -0.00000         0.31096
        -0.00000        -0.00000         0.31096

 GEOMETRY PRIORITY, STEP = 0.0200 ANGSTROMS



     POINT   POTENTIAL  +  ENERGY LOST   =   TOTAL      ERROR    REF%   MOVEMENT
       1      -0.46506      0.00000         -0.46506   0.00000     1   %  0.0000
       3      -0.46715      0.00000         -0.46715  -0.00209     2   %  0.0137
     181      -0.48279      0.00000         -0.48279  -0.01773     3   %  0.0400
     277      -0.50490      0.01756         -0.48734  -0.00039     4   %  0.0600
     286      -0.53572      0.04790         -0.48782  -0.00087     5   %  0.0800
     295      -0.57513      0.08683         -0.48829  -0.00134     6   %  0.1000
     304      -0.62297      0.13421         -0.48876  -0.00180     7   %  0.1200
     313      -0.67905      0.18984         -0.48921  -0.00226     8   %  0.1400
     322      -0.74315      0.25349         -0.48966  -0.00271     9   %  0.1600
     330      -0.81503      0.32493         -0.49010  -0.00315    10   %  0.1800
     339      -0.89433      0.40379         -0.49053  -0.00358    11   %  0.2000
     347      -0.98080      0.48984         -0.49096  -0.00400    12   %  0.2200
     355      -1.07404      0.58267         -0.49136  -0.00441    13   %  0.2400
     363      -1.17365      0.68189         -0.49176  -0.00481    14   %  0.2600
     371      -1.27923      0.78709         -0.49214  -0.00519    15   %  0.2799
     378      -1.39036      0.89785         -0.49250  -0.00555    16   %  0.2999
     385      -1.50652      1.01367         -0.49285  -0.00590    17   %  0.3199
     392      -1.62720      1.13403         -0.49318  -0.00623    18   %  0.3399
     398      -1.75192      1.25844         -0.49348  -0.00653    19   %  0.3599
     403      -1.88020      1.38643         -0.49376  -0.00681    20   %  0.3799
     409      -2.01113      1.51712         -0.49401  -0.00706    21   %  0.3998
     413      -2.14464      1.65041         -0.49423  -0.00728    22   %  0.4198
     417      -2.27974      1.78534         -0.49441  -0.00745    23   %  0.4398
     420      -2.38038      1.88588         -0.49450  -0.00755    24   %  0.4546
     422      -2.55258      2.05804         -0.49454  -0.00759    25   %  0.4798
     424      -2.68643      2.19210         -0.49434  -0.00739    26   %  0.4995
     427      -2.82281      2.32868         -0.49413  -0.00718    27   %  0.5196
     431      -2.95607      2.46218         -0.49389  -0.00694    28   %  0.5396
     436      -3.08697      2.59334         -0.49363  -0.00667    29   %  0.5595
     442      -3.21475      2.72142         -0.49333  -0.00638    30   %  0.5795
     448      -3.33858      2.84558         -0.49300  -0.00605    31   %  0.5994
     455      -3.45785      2.96520         -0.49265  -0.00570    32   %  0.6193
     463      -3.57179      3.07952         -0.49227  -0.00532    33   %  0.6393
     471      -3.67960      3.18772         -0.49187  -0.00492    34   %  0.6592
     479      -3.78054      3.28909         -0.49145  -0.00450    35   %  0.6791
     488      -3.87393      3.38293         -0.49101  -0.00405    36   %  0.6990
     498      -3.95901      3.46847         -0.49054  -0.00359    37   %  0.7189
     507      -4.03499      3.54493         -0.49006  -0.00311    38   %  0.7388
     517      -4.10119      3.61163         -0.48957  -0.00262    39   %  0.7587
     528      -4.15691      3.66786         -0.48905  -0.00210    40   %  0.7786
     539      -4.20138      3.71285         -0.48853  -0.00158    41   %  0.7984
     550      -4.23390      3.74591         -0.48799  -0.00104    42   %  0.8183
     562      -4.25380      3.76635         -0.48745  -0.00050    43   %  0.8381


 IRC CALCULATION COMPLETE 
           INITIAL VELOCITY IN DRC (Angstroms/Femtosecond)
        -0.00000        -0.00000         0.06713
         0.00000         0.00000        -0.31096
         0.00000         0.00000        -0.31096
         0.00000         0.00000        -0.31096

 GEOMETRY PRIORITY, STEP = 0.0200 ANGSTROMS



     POINT   POTENTIAL  +  ENERGY LOST   =   TOTAL      ERROR    REF%   MOVEMENT
       1      -0.46506      0.00000         -0.46506   0.00000     1   %  0.0000
       3      -0.46715      0.00000         -0.46715  -0.00209     2   %  0.0137
     181      -0.48279      0.00000         -0.48279  -0.01773     3   %  0.0400
     277      -0.50490      0.01756         -0.48734  -0.00039     4   %  0.0600
     286      -0.53572      0.04790         -0.48782  -0.00087     5   %  0.0800
     295      -0.57513      0.08683         -0.48829  -0.00134     6   %  0.1000
     304      -0.62297      0.13421         -0.48876  -0.00180     7   %  0.1200
     313      -0.67905      0.18984         -0.48921  -0.00226     8   %  0.1400
     322      -0.74315      0.25349         -0.48966  -0.00271     9   %  0.1600
     330      -0.81503      0.32493         -0.49010  -0.00315    10   %  0.1800
     339      -0.89433      0.40379         -0.49053  -0.00358    11   %  0.2000
     347      -0.98080      0.48984         -0.49096  -0.00400    12   %  0.2200
     355      -1.07404      0.58267         -0.49136  -0.00441    13   %  0.2400
     363      -1.17365      0.68189         -0.49176  -0.00481    14   %  0.2600
     371      -1.27923      0.78709         -0.49214  -0.00519    15   %  0.2799
     378      -1.39036      0.89785         -0.49250  -0.00555    16   %  0.2999
     385      -1.50652      1.01367         -0.49285  -0.00590    17   %  0.3199
     392      -1.62721      1.13403         -0.49318  -0.00623    18   %  0.3399
     398      -1.75192      1.25844         -0.49348  -0.00653    19   %  0.3599
     403      -1.88020      1.38644         -0.49376  -0.00681    20   %  0.3799
     409      -2.01113      1.51712         -0.49401  -0.00706    21   %  0.3998
     413      -2.14464      1.65041         -0.49423  -0.00728    22   %  0.4198
     417      -2.27974      1.78534         -0.49441  -0.00745    23   %  0.4398
     420      -2.38039      1.88589         -0.49450  -0.00755    24   %  0.4546
     422      -2.55258      2.05803         -0.49454  -0.00759    25   %  0.4798
     424      -2.68643      2.19209         -0.49434  -0.00739    26   %  0.4995
     427      -2.82281      2.32868         -0.49413  -0.00718    27   %  0.5196
     431      -2.95608      2.46218         -0.49389  -0.00694    28   %  0.5396
     436      -3.08697      2.59334         -0.49363  -0.00667    29   %  0.5595
     442      -3.21475      2.72142         -0.49333  -0.00638    30   %  0.5795
     448      -3.33858      2.84558         -0.49300  -0.00605    31   %  0.5994
     455      -3.45785      2.96520         -0.49265  -0.00570    32   %  0.6193
     463      -3.57179      3.07952         -0.49227  -0.00532    33   %  0.6393
     471      -3.67960      3.18772         -0.49187  -0.00492    34   %  0.6592
     479      -3.78054      3.28909         -0.49145  -0.00450    35   %  0.6791
     488      -3.87393      3.38293         -0.49101  -0.00405    36   %  0.6990
     498      -3.95901      3.46847         -0.49054  -0.00359    37   %  0.7189
     507      -4.03499      3.54493         -0.49006  -0.00311    38   %  0.7388
     517      -4.10119      3.61163         -0.48957  -0.00262    39   %  0.7587
     528      -4.15691      3.66786         -0.48905  -0.00210    40   %  0.7786
     539      -4.20138      3.71285         -0.48853  -0.00158    41   %  0.7984
     550      -4.23390      3.74591         -0.48799  -0.00104    42   %  0.8183
     562      -4.25380      3.76635         -0.48745  -0.00050    43   %  0.8381


 IRC CALCULATION COMPLETE 

 **********************
 *                    *
 * JOB ENDED NORMALLY *
 *                    *
 **********************



 TOTAL JOB TIME:             1.21 SECONDS

 == MOPAC DONE ==
