 *******************************************************************************
 ** Site#: 29054        For non-commercial use only    Version 18.021W 64BITS **
 *******************************************************************************
 ** Cite this program as: MOPAC2016, Version: 18.021W, James J. P. Stewart,   **
 ** Stewart Computational Chemistry, web: HTTP://OpenMOPAC.net. Days left: 365**
 *******************************************************************************
 **                                                                           **
 **                                MOPAC2016                                  **
 **                                                                           **
 *******************************************************************************

                              PM7 CALCULATION RESULTS


 *******************************************************************************
 *  CALCULATION DONE:                                Sun Jan 21 14:49:49 2018  *
 *  SYMMETRY   - SYMMETRY CONDITIONS TO BE IMPOSED
 *  T=         - A TIME OF 172800.0 SECONDS REQUESTED
 *  DUMP=N     - RESTART FILE WRITTEN EVERY  7200.000 SECONDS
 *******************************************************************************



                    PARAMETER DEPENDENCE DATA

        REFERENCE ATOM      FUNCTION NO.    DEPENDENT ATOM(S)
            2                  1               4

             DESCRIPTIONS OF THE FUNCTIONS USED
   1      BOND LENGTH    IS SET EQUAL TO THE REFERENCE BOND LENGTH   
 
  symmetry
 Using SYMMETRY to optimize the transition state in a narcissistic reaction

  ATOM    CHEMICAL      BOND LENGTH      BOND ANGLE     TWIST ANGLE 
 NUMBER    SYMBOL       (ANGSTROMS)      (DEGREES)       (DEGREES) 
   (I)                     NA:I           NB:NA:I       NC:NB:NA:I       NA    NB    NC 
     1       C          0.00000000  *    0.0000000  *    0.0000000  *     0     0     0
     2       C          1.80000000  *    0.0000000  *    0.0000000  *     1     0     0
     3       C          2.40000000  *   90.0000000  *    0.0000000  *     2     1     0
     4       C          1.80000000      89.0000000  *    0.0000000  *     3     2     1
     5       C          1.40000000  *  100.0000000  *  -28.0000000  *     1     2     3
     6       C          1.40000000  *  101.0000000  *  -27.0000000  *     2     1     3
     7       H          1.10000000  *  119.0000000  *  -96.0000000  *     5     1     2
     8       H          1.10000000  *  101.0000000  * -152.0000000  *     1     2     3
     9       H          1.10000000  *   98.0000000  *   93.0000000  *     1     2     3
    10       H          1.10000000  *   98.0000000  *   94.0000000  *     2     1     3
    11       H          1.10000000  *  101.0000000  * -151.0000000  *     2     1     3
    12       H          1.10000000  *  119.0000000  *  -96.0000000  *     6     2     1
    13       H          1.10000000  *  149.0000000  * -112.0000000  *     3     2     1
    14       H          1.10000000  *   94.0000000  *   99.0000000  *     3     2     1
    15       H          1.10000000  *  101.0000000  *  151.0000000  *     4     3     2
    16       H          1.10000000  *   98.0000000  *  -94.0000000  *     4     3     2
 


          CARTESIAN COORDINATES 

    NO.       ATOM           X           Y           Z

     1         C          0.0000      0.0000      0.0000
     2         C          1.8000      0.0000      0.0000
     3         C          1.8000      2.4000      0.0000
     4         C          0.0003      2.3686      0.0000
     5         C         -0.2431      1.2173      0.6473
     6         C          2.0671      1.2245     -0.6239
     7         H         -0.4347      1.2164      1.7305
     8         H         -0.2099     -0.9534      0.5069
     9         H         -0.1531     -0.0570     -1.0878
    10         H          1.9531     -0.0760      1.0866
    11         H          2.0099     -0.9444     -0.5235
    12         H          2.2676      1.2394     -1.7054
    13         H          2.0122      3.3429     -0.5253
    14         H          1.9717      2.4767      1.0838
    15         H         -0.2261      3.3092      0.5235
    16         H         -0.1541      2.4419     -1.0866

 General Reference for PM7:
 "Optimization of Parameters for Semiempirical Methods VI: More Modifications to the 
 NDDO Approximations and Re-optimization of Parameters", J. J. P. Stewart, J. Mol. Mod., 1:32, 19 (2013)
 http://www.springerlink.com/openurl.asp?genre=article&id=doi:10.1007/s00894-012-1667-x

           Empirical Formula: C6 H10  =    16 atoms



      MOLECULAR POINT GROUP   :   Ci  


      RHF CALCULATION, NO. OF DOUBLY OCCUPIED LEVELS = 17


          Geometry optimization using EF

          DIAGONAL MATRIX USED AS START HESSIAN

 CYCLE:     1 TIME:   0.016 TIME LEFT:  2.00D  GRAD.:   322.765 HEAT:  59.90445
 CYCLE:     2 TIME:   0.016 TIME LEFT:  2.00D  GRAD.:   252.656 HEAT:  57.79093
 CYCLE:     3 TIME:   0.000 TIME LEFT:  2.00D  GRAD.:    85.298 HEAT:  53.91573
 CYCLE:     4 TIME:   0.000 TIME LEFT:  2.00D  GRAD.:    93.514 HEAT:  52.58630
 CYCLE:     5 TIME:   0.000 TIME LEFT:  2.00D  GRAD.:    53.069 HEAT:  52.04318
 CYCLE:     6 TIME:   0.016 TIME LEFT:  2.00D  GRAD.:    23.456 HEAT:  51.71293
 CYCLE:     7 TIME:   0.000 TIME LEFT:  2.00D  GRAD.:    40.612 HEAT:  51.65710
 CYCLE:     8 TIME:   0.000 TIME LEFT:  2.00D  GRAD.:     5.370 HEAT:  51.51268
 CYCLE:     9 TIME:   0.000 TIME LEFT:  2.00D  GRAD.:     4.913 HEAT:  51.49336
 CYCLE:    10 TIME:   0.000 TIME LEFT:  2.00D  GRAD.:     2.176 HEAT:  51.47839
 CYCLE:    11 TIME:   0.016 TIME LEFT:  2.00D  GRAD.:     1.681 HEAT:  51.46390
 CYCLE:    12 TIME:   0.000 TIME LEFT:  2.00D  GRAD.:     2.531 HEAT:  51.45701
 CYCLE:    13 TIME:   0.000 TIME LEFT:  2.00D  GRAD.:     1.049 HEAT:  51.45230
 CYCLE:    14 TIME:   0.000 TIME LEFT:  2.00D  GRAD.:     0.571 HEAT:  51.45100

     GRADIENT =  0.57092  IS LESS THAN CUTOFF =  1.00000



 -------------------------------------------------------------------------------
 symmetry
 Using SYMMETRY to optimize the transition state in a narcissistic reaction



     GEOMETRY OPTIMISED USING EIGENVECTOR FOLLOWING (EF).     
     SCF FIELD WAS ACHIEVED                                   


                              PM7 CALCULATION
                                                       MOPAC2016 (Version: 18.021W)
                                                       Sun Jan 21 14:49:49 2018
                                                       No. of days remaining = 365




          FINAL HEAT OF FORMATION =         51.45100 KCAL/MOL =     215.27098 KJ/MOL


          TOTAL ENERGY            =       -869.63520 EV
          ELECTRONIC ENERGY       =      -3926.47489 EV  POINT GROUP:     C2h 
          CORE-CORE REPULSION     =       3056.83969 EV
          COSMO AREA              =        132.14 SQUARE ANGSTROMS
          COSMO VOLUME            =        126.33 CUBIC ANGSTROMS

          GRADIENT NORM           =          0.57092
          IONIZATION POTENTIAL    =          8.273565 EV
          HOMO LUMO ENERGIES (EV) =         -8.274  0.255
          NO. OF FILLED LEVELS    =         17
          MOLECULAR WEIGHT        =         82.1450

          MOLECULAR DIMENSIONS (Angstroms)

            Atom       Atom       Distance
            H    15    H    11     4.99997
            H    13    H     8     4.38772
            H    10    H     9     2.85935


          SCF CALCULATIONS        =         19
 
          WALL-CLOCK TIME         =          0.094 SECONDS
          COMPUTATION TIME        =          0.312 SECONDS




  ATOM    CHEMICAL      BOND LENGTH      BOND ANGLE     TWIST ANGLE 
 NUMBER    SYMBOL       (ANGSTROMS)      (DEGREES)       (DEGREES) 
   (I)                     NA:I           NB:NA:I       NC:NB:NA:I       NA    NB    NC 
     1       C          0.00000008  *    0.0000001  *    0.0000004  *     0     0     0
     2       C          1.90291749  *    0.0000000  *   -0.0000000  *     1     0     0
     3       C          2.43382775  *   89.9188154  *   -0.0000000  *     2     1     0
     4       C          1.90291749      90.0726364  *    0.3430449  *     3     2     1
     5       C          1.40297703  *  101.3888346  *  -28.0897810  *     1     2     3
     6       C          1.40303119  *  101.1783119  *  -27.8246318  *     2     1     3
     7       H          1.08636951  *  119.2200584  *  -97.5068588  *     5     1     2
     8       H          1.08618700  *  101.4502652  * -151.4840487  *     1     2     3
     9       H          1.08822571  *   98.0833545  *   94.3917288  *     1     2     3
    10       H          1.08799876  *   98.1490857  *   94.6952395  *     2     1     3
    11       H          1.08618485  *  101.5012502  * -151.1167313  *     2     1     3
    12       H          1.08634478  *  119.2194046  *  -97.5874745  *     6     2     1
    13       H          1.08626673  *  149.0949099  * -112.6624049  *     3     2     1
    14       H          1.08820539  *   94.6477964  *   98.3499993  *     3     2     1
    15       H          1.08641790  *  101.5329895  *  150.7705900  *     4     3     2
    16       H          1.08792235  *   97.9319907  *  -95.0876420  *     4     3     2

                             CARTESIAN COORDINATES

   1    C        0.000000082     0.000000054     0.000000385
   2    C        1.902917575     0.000000054     0.000000385
   3    C        1.899468992     2.433825356     0.000000385
   4    C       -0.003414373     2.433541501     0.011393575
   5    C       -0.277040611     1.213350483     0.647591099
   6    C        2.174913436     1.217273374    -0.642463967
   7    H       -0.503191848     1.207815172     1.710146364
   8    H       -0.215626773    -0.935419986     0.508229274
   9    H       -0.153019257    -0.082503000    -1.074249830
  10    H        2.057140682    -0.088159583     1.073398915
  11    H        2.119491230    -0.931972360    -0.514120999
  12    H        2.400533733     1.217229962    -1.705121231
  13    H        2.113117214     3.366166818    -0.514848380
  14    H        2.056853049     2.522226181     1.073129695
  15    H       -0.217646795     3.362457391     0.532472829
  16    H       -0.159982474     2.529063336    -1.060957607


           Empirical Formula: C6 H10  =    16 atoms



      MOLECULAR POINT GROUP   :   C2h 


                  EIGENVALUES  
 -29.64032 -25.76299 -25.13203 -21.53460 -19.40264 -19.04572 -16.51044 -15.34574
 -15.08131 -14.03484 -13.36235 -12.77457 -12.48703 -12.16538 -11.62960 -10.08872
  -8.27356   0.25475   1.49811   2.97808   5.07968   5.22242   5.36464   5.37581
   6.04060   6.11248   6.14025   6.16510   6.32908   6.43974   6.49664   6.64209
   6.65694   6.68195


              NET ATOMIC CHARGES AND DIPOLE CONTRIBUTIONS

  ATOM NO.   TYPE          CHARGE      No. of ELECS.   s-Pop       p-Pop       
    1          C          -0.246911        4.2469     1.09316     3.15376
    2          C          -0.246802        4.2468     1.09317     3.15363
    3          C          -0.247533        4.2475     1.09312     3.15441
    4          C          -0.246816        4.2468     1.09312     3.15370
    5          C          -0.199944        4.1999     1.07812     3.12182
    6          C          -0.199426        4.1994     1.07819     3.12124
    7          H           0.139879        0.8601     0.86012
    8          H           0.134916        0.8651     0.86508
    9          H           0.141975        0.8580     0.85802
   10          H           0.142050        0.8580     0.85795
   11          H           0.134913        0.8651     0.86509
   12          H           0.139875        0.8601     0.86012
   13          H           0.134896        0.8651     0.86510
   14          H           0.142065        0.8579     0.85793
   15          H           0.134818        0.8652     0.86518
   16          H           0.142045        0.8580     0.85796
 DIPOLE           X         Y         Z       TOTAL
 POINT-CHG.     0.003    -0.002    -0.001     0.004
 HYBRID         0.001    -0.000     0.000     0.001
 SUM            0.004    -0.003    -0.001     0.005


          ATOMIC ORBITAL ELECTRON POPULATIONS

     Atom    s        px        py        pz   
    1  C   1.09316   0.97149   1.05855   1.12371
    2  C   1.09317   0.97155   1.05809   1.12399
    3  C   1.09312   0.97228   1.05816   1.12398
    4  C   1.09312   0.97167   1.05775   1.12427
    5  C   1.07812   1.05414   0.98481   1.08287
    6  C   1.07819   1.05364   0.98480   1.08280
    7  H   0.86012
    8  H   0.86508
    9  H   0.85802
   10  H   0.85795
   11  H   0.86509
   12  H   0.86012
   13  H   0.86510
   14  H   0.85793
   15  H   0.86518
   16  H   0.85796
 *******************************************************************************
 ** Site#: 29054        For non-commercial use only    Version 18.021W 64BITS **
 *******************************************************************************
 ** Cite this program as: MOPAC2016, Version: 18.021W, James J. P. Stewart,   **
 ** Stewart Computational Chemistry, web: HTTP://OpenMOPAC.net. Days left: 365**
 *******************************************************************************
 **                                                                           **
 **                                MOPAC2016                                  **
 **                                                                           **
 *******************************************************************************

                              PM7 CALCULATION RESULTS


 *******************************************************************************
 *  CALCULATION DONE:                                Sun Jan 21 14:49:49 2018  *
 *  OPT        - OPTIMIZE COORDINATES OF ALL ATOMS
 *  OLDGEO     - PREVIOUS GEOMETRY TO BE USED
 *  TS         - USE EF ROUTINE FOR TS SEARCH
 *  T=         - A TIME OF 172800.0 SECONDS REQUESTED
 *  DUMP=N     - RESTART FILE WRITTEN EVERY  7200.000 SECONDS
 *******************************************************************************
 oldgeo opt ts
 Optimize transition state (redundant operation - run here to verify that the previous optimization had run correctly)

  ATOM    CHEMICAL      BOND LENGTH      BOND ANGLE     TWIST ANGLE 
 NUMBER    SYMBOL       (ANGSTROMS)      (DEGREES)       (DEGREES) 
   (I)                     NA:I           NB:NA:I       NC:NB:NA:I       NA    NB    NC 
     1       C          0.00000008  *    0.0000001  *    0.0000004  *     0     0     0
     2       C          1.90291749  *    0.0000000  *   -0.0000000  *     1     0     0
     3       C          2.43382775  *   89.9188154  *   -0.0000000  *     2     1     0
     4       C          1.90291749  *   90.0726364  *    0.3430449  *     3     2     1
     5       C          1.40297703  *  101.3888346  *  -28.0897810  *     1     2     3
     6       C          1.40303119  *  101.1783119  *  -27.8246318  *     2     1     3
     7       H          1.08636951  *  119.2200584  *  -97.5068588  *     5     1     2
     8       H          1.08618700  *  101.4502652  * -151.4840487  *     1     2     3
     9       H          1.08822571  *   98.0833545  *   94.3917288  *     1     2     3
    10       H          1.08799876  *   98.1490857  *   94.6952395  *     2     1     3
    11       H          1.08618485  *  101.5012502  * -151.1167313  *     2     1     3
    12       H          1.08634478  *  119.2194046  *  -97.5874745  *     6     2     1
    13       H          1.08626673  *  149.0949099  * -112.6624049  *     3     2     1
    14       H          1.08820539  *   94.6477964  *   98.3499993  *     3     2     1
    15       H          1.08641790  *  101.5329895  *  150.7705900  *     4     3     2
    16       H          1.08792235  *   97.9319907  *  -95.0876420  *     4     3     2
 


          CARTESIAN COORDINATES 

    NO.       ATOM           X           Y           Z

     1         C          0.0000      0.0000      0.0000
     2         C          1.9029      0.0000      0.0000
     3         C          1.8995      2.4338      0.0000
     4         C         -0.0034      2.4335      0.0114
     5         C         -0.2770      1.2134      0.6476
     6         C          2.1749      1.2173     -0.6425
     7         H         -0.5032      1.2078      1.7101
     8         H         -0.2156     -0.9354      0.5082
     9         H         -0.1530     -0.0825     -1.0742
    10         H          2.0571     -0.0882      1.0734
    11         H          2.1195     -0.9320     -0.5141
    12         H          2.4005      1.2172     -1.7051
    13         H          2.1131      3.3662     -0.5148
    14         H          2.0569      2.5222      1.0731
    15         H         -0.2176      3.3625      0.5325
    16         H         -0.1600      2.5291     -1.0610

 General Reference for PM7:
 "Optimization of Parameters for Semiempirical Methods VI: More Modifications to the 
 NDDO Approximations and Re-optimization of Parameters", J. J. P. Stewart, J. Mol. Mod., 1:32, 19 (2013)
 http://www.springerlink.com/openurl.asp?genre=article&id=doi:10.1007/s00894-012-1667-x

           Empirical Formula: C6 H10  =    16 atoms



      MOLECULAR POINT GROUP   :   C2h 


      RHF CALCULATION, NO. OF DOUBLY OCCUPIED LEVELS = 17


          Transition state refinement using EF

     GRADIENT =  0.67285  IS LESS THAN CUTOFF =  1.00000



 -------------------------------------------------------------------------------
 opt ts
 Optimize transition state (redundant operation - run here to verify that the previous optimization had run correctly)



     GRADIENTS WERE INITIALLY ACCEPTABLY SMALL                
     SCF FIELD WAS ACHIEVED                                   


                              PM7 CALCULATION
                                                       MOPAC2016 (Version: 18.021W)
                                                       Sun Jan 21 14:49:49 2018
                                                       No. of days remaining = 365




          FINAL HEAT OF FORMATION =         51.32212 KCAL/MOL =     214.73175 KJ/MOL


          TOTAL ENERGY            =       -869.63520 EV
          ELECTRONIC ENERGY       =      -3926.47489 EV  POINT GROUP:     C2h 
          CORE-CORE REPULSION     =       3056.83969 EV
          COSMO AREA              =        132.14 SQUARE ANGSTROMS
          COSMO VOLUME            =        126.33 CUBIC ANGSTROMS

          GRADIENT NORM           =          0.67285
          IONIZATION POTENTIAL    =          8.273564 EV
          HOMO LUMO ENERGIES (EV) =         -8.274  0.255
          NO. OF FILLED LEVELS    =         17
          MOLECULAR WEIGHT        =         82.1450

          MOLECULAR DIMENSIONS (Angstroms)

            Atom       Atom       Distance
            H    15    H    11     4.99997
            H    13    H     8     4.38772
            H    10    H     9     2.85935


          SCF CALCULATIONS        =          1
 
          WALL-CLOCK TIME         =          0.109 SECONDS
          COMPUTATION TIME        =          0.374 SECONDS




  ATOM    CHEMICAL      BOND LENGTH      BOND ANGLE     TWIST ANGLE 
 NUMBER    SYMBOL       (ANGSTROMS)      (DEGREES)       (DEGREES) 
   (I)                     NA:I           NB:NA:I       NC:NB:NA:I       NA    NB    NC 
     1       C          0.00000008  *    0.0000001  *    0.0000004  *     0     0     0
     2       C          1.90291749  *    0.0000000  *   -0.0000000  *     1     0     0
     3       C          2.43382775  *   89.9188154  *   -0.0000000  *     2     1     0
     4       C          1.90291749  *   90.0726364  *    0.3430449  *     3     2     1
     5       C          1.40297703  *  101.3888346  *  -28.0897810  *     1     2     3
     6       C          1.40303119  *  101.1783119  *  -27.8246318  *     2     1     3
     7       H          1.08636951  *  119.2200584  *  -97.5068588  *     5     1     2
     8       H          1.08618700  *  101.4502652  * -151.4840487  *     1     2     3
     9       H          1.08822571  *   98.0833545  *   94.3917288  *     1     2     3
    10       H          1.08799876  *   98.1490857  *   94.6952395  *     2     1     3
    11       H          1.08618485  *  101.5012502  * -151.1167313  *     2     1     3
    12       H          1.08634478  *  119.2194046  *  -97.5874745  *     6     2     1
    13       H          1.08626673  *  149.0949099  * -112.6624049  *     3     2     1
    14       H          1.08820539  *   94.6477964  *   98.3499993  *     3     2     1
    15       H          1.08641790  *  101.5329895  *  150.7705900  *     4     3     2
    16       H          1.08792235  *   97.9319907  *  -95.0876420  *     4     3     2

                             CARTESIAN COORDINATES

   1    C        0.000000082     0.000000054     0.000000385
   2    C        1.902917575     0.000000054     0.000000385
   3    C        1.899468992     2.433825356     0.000000385
   4    C       -0.003414373     2.433541501     0.011393575
   5    C       -0.277040611     1.213350483     0.647591099
   6    C        2.174913436     1.217273374    -0.642463967
   7    H       -0.503191848     1.207815172     1.710146364
   8    H       -0.215626773    -0.935419986     0.508229274
   9    H       -0.153019257    -0.082503000    -1.074249830
  10    H        2.057140682    -0.088159583     1.073398915
  11    H        2.119491230    -0.931972360    -0.514120999
  12    H        2.400533733     1.217229962    -1.705121231
  13    H        2.113117214     3.366166818    -0.514848380
  14    H        2.056853049     2.522226181     1.073129695
  15    H       -0.217646795     3.362457391     0.532472829
  16    H       -0.159982474     2.529063336    -1.060957607


           Empirical Formula: C6 H10  =    16 atoms



      MOLECULAR POINT GROUP   :   C2h 


                  EIGENVALUES  
 -29.64032 -25.76299 -25.13203 -21.53460 -19.40264 -19.04572 -16.51044 -15.34574
 -15.08131 -14.03484 -13.36235 -12.77457 -12.48703 -12.16538 -11.62960 -10.08872
  -8.27356   0.25475   1.49811   2.97808   5.07968   5.22242   5.36464   5.37581
   6.04060   6.11248   6.14025   6.16510   6.32908   6.43974   6.49664   6.64209
   6.65694   6.68195


              NET ATOMIC CHARGES AND DIPOLE CONTRIBUTIONS

  ATOM NO.   TYPE          CHARGE      No. of ELECS.   s-Pop       p-Pop       
    1          C          -0.246909        4.2469     1.09316     3.15375
    2          C          -0.246804        4.2468     1.09317     3.15363
    3          C          -0.247538        4.2475     1.09312     3.15442
    4          C          -0.246813        4.2468     1.09312     3.15369
    5          C          -0.199947        4.1999     1.07812     3.12182
    6          C          -0.199421        4.1994     1.07819     3.12123
    7          H           0.139880        0.8601     0.86012
    8          H           0.134916        0.8651     0.86508
    9          H           0.141975        0.8580     0.85803
   10          H           0.142050        0.8580     0.85795
   11          H           0.134913        0.8651     0.86509
   12          H           0.139874        0.8601     0.86013
   13          H           0.134897        0.8651     0.86510
   14          H           0.142066        0.8579     0.85793
   15          H           0.134817        0.8652     0.86518
   16          H           0.142045        0.8580     0.85796
 DIPOLE           X         Y         Z       TOTAL
 POINT-CHG.     0.003    -0.002    -0.001     0.004
 HYBRID         0.001    -0.000     0.000     0.001
 SUM            0.004    -0.003    -0.001     0.005


          ATOMIC ORBITAL ELECTRON POPULATIONS

     Atom    s        px        py        pz   
    1  C   1.09316   0.97149   1.05855   1.12371
    2  C   1.09317   0.97155   1.05809   1.12399
    3  C   1.09312   0.97228   1.05816   1.12398
    4  C   1.09312   0.97167   1.05775   1.12427
    5  C   1.07812   1.05414   0.98481   1.08288
    6  C   1.07819   1.05363   0.98480   1.08280
    7  H   0.86012
    8  H   0.86508
    9  H   0.85803
   10  H   0.85795
   11  H   0.86509
   12  H   0.86013
   13  H   0.86510
   14  H   0.85793
   15  H   0.86518
   16  H   0.85796
 *******************************************************************************
 ** Site#: 29054        For non-commercial use only    Version 18.021W 64BITS **
 *******************************************************************************
 ** Cite this program as: MOPAC2016, Version: 18.021W, James J. P. Stewart,   **
 ** Stewart Computational Chemistry, web: HTTP://OpenMOPAC.net. Days left: 365**
 *******************************************************************************
 **                                                                           **
 **                                MOPAC2016                                  **
 **                                                                           **
 *******************************************************************************

                              PM7 CALCULATION RESULTS


 *******************************************************************************
 *  CALCULATION DONE:                                Sun Jan 21 14:49:49 2018  *
 *  OLDGEO     - PREVIOUS GEOMETRY TO BE USED
 *  FORCE      - FORCE CALCULATION SPECIFIED
 *  T=         - A TIME OF 172800.0 SECONDS REQUESTED
 *  DUMP=N     - RESTART FILE WRITTEN EVERY  7200.000 SECONDS
 *  ISOTOPE    - FORCE MATRIX WRITTEN TO DISK (CHAN. 9 )
 *******************************************************************************
oldgeo FORCE isotope
 Verify that there is one and only one imaginary vibration

  ATOM    CHEMICAL      BOND LENGTH      BOND ANGLE     TWIST ANGLE 
 NUMBER    SYMBOL       (ANGSTROMS)      (DEGREES)       (DEGREES) 
   (I)                     NA:I           NB:NA:I       NC:NB:NA:I       NA    NB    NC 
     1       C          0.00000008  *    0.0000001  *    0.0000004  *     0     0     0
     2       C          1.90291749  *    0.0000000  *   -0.0000000  *     1     0     0
     3       C          2.43382775  *   89.9188154  *   -0.0000000  *     2     1     0
     4       C          1.90291749  *   90.0726364  *    0.3430449  *     3     2     1
     5       C          1.40297703  *  101.3888346  *  -28.0897810  *     1     2     3
     6       C          1.40303119  *  101.1783119  *  -27.8246318  *     2     1     3
     7       H          1.08636951  *  119.2200584  *  -97.5068588  *     5     1     2
     8       H          1.08618700  *  101.4502652  * -151.4840487  *     1     2     3
     9       H          1.08822571  *   98.0833545  *   94.3917288  *     1     2     3
    10       H          1.08799876  *   98.1490857  *   94.6952395  *     2     1     3
    11       H          1.08618485  *  101.5012502  * -151.1167313  *     2     1     3
    12       H          1.08634478  *  119.2194046  *  -97.5874745  *     6     2     1
    13       H          1.08626673  *  149.0949099  * -112.6624049  *     3     2     1
    14       H          1.08820539  *   94.6477964  *   98.3499993  *     3     2     1
    15       H          1.08641790  *  101.5329895  *  150.7705900  *     4     3     2
    16       H          1.08792235  *   97.9319907  *  -95.0876420  *     4     3     2
 


          CARTESIAN COORDINATES 

    NO.       ATOM           X           Y           Z

     1         C          0.0000      0.0000      0.0000
     2         C          1.9029      0.0000      0.0000
     3         C          1.8995      2.4338      0.0000
     4         C         -0.0034      2.4335      0.0114
     5         C         -0.2770      1.2134      0.6476
     6         C          2.1749      1.2173     -0.6425
     7         H         -0.5032      1.2078      1.7101
     8         H         -0.2156     -0.9354      0.5082
     9         H         -0.1530     -0.0825     -1.0742
    10         H          2.0571     -0.0882      1.0734
    11         H          2.1195     -0.9320     -0.5141
    12         H          2.4005      1.2172     -1.7051
    13         H          2.1131      3.3662     -0.5148
    14         H          2.0569      2.5222      1.0731
    15         H         -0.2176      3.3625      0.5325
    16         H         -0.1600      2.5291     -1.0610

 General Reference for PM7:
 "Optimization of Parameters for Semiempirical Methods VI: More Modifications to the 
 NDDO Approximations and Re-optimization of Parameters", J. J. P. Stewart, J. Mol. Mod., 1:32, 19 (2013)
 http://www.springerlink.com/openurl.asp?genre=article&id=doi:10.1007/s00894-012-1667-x

           Empirical Formula: C6 H10  =    16 atoms



      MOLECULAR POINT GROUP   :   C2h 


      RHF CALCULATION, NO. OF DOUBLY OCCUPIED LEVELS = 17



          HEAT OF FORMATION =      51.322119 KCALS/MOLE


          CARTESIAN COORDINATE DERIVATIVES

   NUMBER  ATOM         X            Y            Z

     1       C      0.276155     0.315921     0.129235
     2       C      0.087723    -0.069554     0.143045
     3       C     -0.166657    -0.126640    -0.229720
     4       C     -0.042655    -0.211386    -0.020157
     5       C     -0.191791     0.098199    -0.149519
     6       C     -0.179588    -0.021769     0.041350
     7       H      0.041545    -0.033402     0.033638
     8       H      0.020337    -0.029206    -0.060241
     9       H     -0.002092     0.016122    -0.038903
    10       H      0.030921    -0.040381    -0.004190
    11       H     -0.018270     0.025324    -0.013918
    12       H      0.021658    -0.046044    -0.009189
    13       H      0.047293     0.005710    -0.042319
    14       H     -0.030535     0.007887     0.046367
    15       H     -0.019319    -0.007332     0.128405
    16       H      0.125270     0.116547     0.046111
 


          GRADIENT NORM =   0.73830


          TIME FOR SCF CALCULATION =    0.02

          TIME FOR DERIVATIVES     =    0.00

          MOLECULAR WEIGHT =   82.15



          ROTATIONAL CONSTANTS IN CM(-1)

          A =    0.15028262   B =    0.14551680   C =    0.08560351



           PRINCIPAL MOMENTS OF INERTIA IN UNITS OF 10**(-40)*GRAM-CM**2

          A =      186.2675   B =      192.3680   C =      327.0050


          ORIENTATION OF MOLECULE IN FORCE CALCULATION

    NO.       ATOM         X         Y         Z

     1          C      -0.9495   -1.2164   -0.0028
     2          C       0.9534   -1.2164   -0.0028
     3          C       0.9500    1.2174   -0.0028
     4          C      -0.9529    1.2172    0.0086
     5          C      -1.2266   -0.0030    0.6448
     6          C       1.2254    0.0009   -0.6452
     7          H      -1.4527   -0.0086    1.7074
     8          H      -1.1651   -2.1518    0.5055
     9          H      -1.1025   -1.2989   -1.0770
    10          H       1.1076   -1.3045    1.0706
    11          H       1.1700   -2.1483   -0.5169
    12          H       1.4510    0.0009   -1.7079
    13          H       1.1636    2.1498   -0.5176
    14          H       1.1073    1.3059    1.0704
    15          H      -1.1672    2.1461    0.5297
    16          H      -1.1095    1.3127   -1.0637


    FIRST DERIVATIVES WILL BE USED IN THE CALCULATION OF SECOND DERIVATIVES

          ESTIMATED TIME TO COMPLETE CALCULATION =        1.50 SECONDS

    FOR POINT-GROUP C2h  THERE ARE   4 UNIQUE SYMMETRY FUNCTIONS.

 STEP:   1 TIME =     0.00 SECS, INTEGRAL =      0.00 TIME LEFT: 172799.98
 STEP:   2 TIME =     0.02 SECS, INTEGRAL =      0.02 TIME LEFT: 172799.97
 STEP:   3 TIME =     0.00 SECS, INTEGRAL =      0.02 TIME LEFT: 172799.97
 STEP:   4                       INTEGRAL =      0.02 TIME LEFT: 172799.97
 STEP:   5                       INTEGRAL =      0.02 TIME LEFT: 172799.97
 STEP:   6                       INTEGRAL =      0.02 TIME LEFT: 172799.97
 STEP:   7                       INTEGRAL =      0.02 TIME LEFT: 172799.97
 STEP:   8                       INTEGRAL =      0.02 TIME LEFT: 172799.97
 STEP:   9                       INTEGRAL =      0.02 TIME LEFT: 172799.97
 STEP:  10                       INTEGRAL =      0.02 TIME LEFT: 172799.97
 STEP:  11                       INTEGRAL =      0.02 TIME LEFT: 172799.97
 STEP:  12                       INTEGRAL =      0.02 TIME LEFT: 172799.97
 STEP:  13 TIME =     0.02 SECS, INTEGRAL =      0.03 TIME LEFT: 172799.95
 STEP:  14 TIME =     0.00 SECS, INTEGRAL =      0.03 TIME LEFT: 172799.95
 STEP:  15 TIME =     0.00 SECS, INTEGRAL =      0.03 TIME LEFT: 172799.95
 STEP:  16                       INTEGRAL =      0.03 TIME LEFT: 172799.95
 STEP:  17                       INTEGRAL =      0.03 TIME LEFT: 172799.95
 STEP:  18                       INTEGRAL =      0.03 TIME LEFT: 172799.95
 STEP:  19 TIME =     0.02 SECS, INTEGRAL =      0.05 TIME LEFT: 172799.94
 STEP:  20 TIME =     0.00 SECS, INTEGRAL =      0.05 TIME LEFT: 172799.94
 STEP:  21 TIME =     0.02 SECS, INTEGRAL =      0.06 TIME LEFT: 172799.92
 STEP:  22 TIME =     0.00 SECS, INTEGRAL =      0.06 TIME LEFT: 172799.92
 STEP:  23 TIME =     0.02 SECS, INTEGRAL =      0.08 TIME LEFT: 172799.91
 STEP:  24 TIME =     0.00 SECS, INTEGRAL =      0.08 TIME LEFT: 172799.91
 STEP:  25 TIME =     0.00 SECS, INTEGRAL =      0.08 TIME LEFT: 172799.91
 STEP:  26 TIME =     0.02 SECS, INTEGRAL =      0.09 TIME LEFT: 172799.89
 STEP:  27 TIME =     0.00 SECS, INTEGRAL =      0.09 TIME LEFT: 172799.89
 STEP:  28                       INTEGRAL =      0.09 TIME LEFT: 172799.89
 STEP:  29                       INTEGRAL =      0.09 TIME LEFT: 172799.89
 STEP:  30                       INTEGRAL =      0.09 TIME LEFT: 172799.89
 STEP:  31                       INTEGRAL =      0.09 TIME LEFT: 172799.89
 STEP:  32                       INTEGRAL =      0.09 TIME LEFT: 172799.89
 STEP:  33                       INTEGRAL =      0.09 TIME LEFT: 172799.89
 STEP:  34                       INTEGRAL =      0.09 TIME LEFT: 172799.89
 STEP:  35                       INTEGRAL =      0.09 TIME LEFT: 172799.89
 STEP:  36                       INTEGRAL =      0.09 TIME LEFT: 172799.89
 STEP:  37                       INTEGRAL =      0.09 TIME LEFT: 172799.89
 STEP:  38                       INTEGRAL =      0.09 TIME LEFT: 172799.89
 STEP:  39                       INTEGRAL =      0.09 TIME LEFT: 172799.89
 STEP:  40                       INTEGRAL =      0.09 TIME LEFT: 172799.89
 STEP:  41                       INTEGRAL =      0.09 TIME LEFT: 172799.89
 STEP:  42                       INTEGRAL =      0.09 TIME LEFT: 172799.89
 STEP:  43                       INTEGRAL =      0.09 TIME LEFT: 172799.89
 STEP:  44                       INTEGRAL =      0.09 TIME LEFT: 172799.89
 STEP:  45                       INTEGRAL =      0.09 TIME LEFT: 172799.89
 STEP:  46                       INTEGRAL =      0.09 TIME LEFT: 172799.89
 STEP:  47                       INTEGRAL =      0.09 TIME LEFT: 172799.89
 STEP:  48                       INTEGRAL =      0.09 TIME LEFT: 172799.89

(To convert to Hartree/Bohr^2, multiply by (10^(-21) x N x a0^2)/(4.184 x 627.51) =  0.0642)


           FORCE MATRIX IN MILLIDYNES/ANGSTROM


                  C  1       C  2       C  3       C  4       C  5       C  6
 ------------------------------------------------------------------------------
     C    1  12.361704
     C    2   2.847483  12.361704
     C    3   1.826343   2.334089  12.361704
     C    4   2.334089   1.826343   2.847483  12.361704
     C    5   6.061395   2.216770   2.218864   6.058083  14.703149
     C    6   2.219031   6.058540   6.058540   2.219031   1.707622  14.703149
     H    7   0.766395   0.025051   0.025427   0.766442   3.465293   0.031327
     H    8   3.481180   0.441791   0.081843   0.069145   0.757532   0.094654
     H    9   3.458173   0.539445   0.147084   0.183192   0.782164   0.149354
     H   10   0.542865   3.458647   0.189077   0.152624   0.153210   0.782390
     H   11   0.444304   3.481326   0.069689   0.083808   0.096462   0.755814
     H   12   0.025044   0.766588   0.766588   0.025044   0.031326   3.465210
     H   13   0.083808   0.069689   3.481326   0.444304   0.096406   0.757049
     H   14   0.152624   0.189077   3.458647   0.542865   0.154797   0.782034
     H   15   0.069689   0.083808   0.444304   3.481326   0.757049   0.096406
     H   16   0.189077   0.152624   0.542865   3.458647   0.782034   0.154797


                  H  7       H  8       H  9       H 10       H 11       H 12
 ------------------------------------------------------------------------------
     H    7   4.391666
     H    8   0.035327   4.289250
     H    9   0.071855   0.452124   4.274978
     H   10   0.004544   0.017952   0.006551   4.274978
     H   11   0.003486   0.016592   0.017516   0.452124   4.289250
     H   12   0.007616   0.003567   0.004800   0.071855   0.035327   4.391666
     H   13   0.003448   0.003981   0.008474   0.008215   0.007955   0.035746
     H   14   0.004444   0.008629   0.012591   0.022223   0.008731   0.071630
     H   15   0.035746   0.007955   0.008215   0.008474   0.003981   0.003448
     H   16   0.071630   0.008731   0.022223   0.012591   0.008629   0.004444


                  H 13       H 14       H 15       H 16
 ------------------------------------------------------
     H   13   4.289250
     H   14   0.452124   4.274978
     H   15   0.016592   0.017516   4.289250
     H   16   0.017952   0.006551   0.452124   4.274978


          HEAT OF FORMATION =      51.322119 KCALS/MOLE

          ZERO POINT ENERGY      83.497 KCAL/MOL

         NOTE: SYSTEM IS NOT A GROUND STATE, THEREFORE ZERO POINT
         ENERGY IS NOT MEANINGFULL. ZERO POINT ENERGY PRINTED
         DOES NOT INCLUDE THE  1 IMAGINARY FREQUENCIES


           NORMAL COORDINATE ANALYSIS (Total motion = 1 Angstrom)


   Root No.       1         2         3         4         5         6         7         8

                 1 Au      2 Au      1 Bu      1 Ag      1 Bg      2 Ag      3 Ag      2 Bu  

                -904.8     179.3     360.9     365.0     365.9     433.6     489.9     509.3
  
           1    0.1278    0.0015   -0.0183   -0.1226    0.0516    0.0106   -0.0224   -0.0138
           2   -0.0206    0.0070    0.0126    0.0152    0.0469   -0.0160   -0.0258   -0.0231
           3   -0.0120   -0.0424   -0.0131    0.0155   -0.0039    0.0234   -0.0053    0.0054
           4   -0.1278   -0.0015   -0.0183    0.1225    0.0517   -0.0105    0.0225   -0.0139
           5   -0.0211    0.0068   -0.0126    0.0154   -0.0467   -0.0159   -0.0258    0.0230
           6    0.0120    0.0424   -0.0132   -0.0154   -0.0042   -0.0234    0.0051    0.0055
           7    0.1278    0.0015   -0.0183    0.1226   -0.0516   -0.0106    0.0224   -0.0138
           8   -0.0206    0.0070    0.0126   -0.0152   -0.0469    0.0160    0.0258   -0.0231
           9   -0.0123   -0.0424   -0.0131   -0.0155    0.0039   -0.0234    0.0053    0.0055
          10   -0.1278   -0.0015   -0.0183   -0.1225   -0.0517    0.0105   -0.0225   -0.0138
          11   -0.0211    0.0068   -0.0126   -0.0154    0.0467    0.0159    0.0258    0.0230
          12    0.0122    0.0424   -0.0132    0.0154    0.0042    0.0234   -0.0051    0.0056
          13    0.0000    0.0000    0.0371   -0.0837   -0.0000   -0.0305    0.0374    0.0253
          14    0.0419   -0.0158    0.0000   -0.0001    0.0355    0.0000    0.0001    0.0001
          15    0.0003   -0.0000    0.0322    0.0203    0.0001   -0.0203   -0.0360   -0.0242
          16   -0.0002    0.0000    0.0371    0.0837    0.0000    0.0305   -0.0374    0.0253
          17    0.0419   -0.0158   -0.0000    0.0001   -0.0355   -0.0000   -0.0001    0.0001
          18   -0.0001   -0.0000    0.0322   -0.0203   -0.0001    0.0203    0.0360   -0.0242
          19    0.0003    0.0001    0.1316   -0.0514   -0.0000   -0.1075    0.1249    0.1007
          20   -0.0169   -0.0549    0.0001   -0.0000    0.0230   -0.0001    0.0002    0.0001
          21    0.0002   -0.0001    0.0504    0.0326    0.0000   -0.0340   -0.0114   -0.0024
          22   -0.0092   -0.0209   -0.0243   -0.0229    0.0432    0.0128   -0.0079    0.0066
          23    0.0112   -0.0128   -0.0032   -0.0003    0.0405    0.0054   -0.0007    0.0014
          24    0.0029   -0.0887   -0.0470    0.0086   -0.0196    0.0696    0.0464    0.0628
          25   -0.0754    0.0327   -0.0448   -0.0137    0.0620    0.0028   -0.0249   -0.0426
          26   -0.0043    0.0524    0.0602    0.0222    0.0627   -0.0684   -0.0755   -0.0793
          27    0.0074   -0.0504   -0.0133    0.0094   -0.0078    0.0285    0.0031    0.0169
          28    0.0754   -0.0329   -0.0446    0.0135    0.0622   -0.0026    0.0251   -0.0428
          29   -0.0040    0.0520   -0.0603    0.0221   -0.0625   -0.0682   -0.0755    0.0790
          30   -0.0074    0.0506   -0.0135   -0.0093   -0.0081   -0.0287   -0.0035    0.0173
          31    0.0092    0.0209   -0.0243    0.0227    0.0433   -0.0129    0.0078    0.0066
          32    0.0112   -0.0132    0.0033   -0.0004   -0.0402    0.0057   -0.0004   -0.0017
          33   -0.0028    0.0886   -0.0470   -0.0086   -0.0198   -0.0696   -0.0465    0.0627
          34   -0.0002    0.0001    0.1316    0.0514    0.0000    0.1075   -0.1249    0.1006
          35   -0.0169   -0.0549    0.0001    0.0000   -0.0230    0.0001   -0.0002    0.0002
          36   -0.0002   -0.0001    0.0504   -0.0326   -0.0001    0.0340    0.0114   -0.0024
          37   -0.0094   -0.0209   -0.0242    0.0229   -0.0432   -0.0128    0.0079    0.0066
          38    0.0112   -0.0128   -0.0032    0.0003   -0.0405   -0.0054    0.0007    0.0014
          39    0.0025   -0.0887   -0.0470   -0.0086    0.0197   -0.0696   -0.0464    0.0629
          40   -0.0751    0.0327   -0.0447    0.0137   -0.0620   -0.0028    0.0249   -0.0425
          41   -0.0043    0.0523    0.0602   -0.0222   -0.0627    0.0684    0.0755   -0.0794
          42    0.0071   -0.0504   -0.0133   -0.0094    0.0078   -0.0285   -0.0031    0.0170
          43    0.0093    0.0209   -0.0243   -0.0227   -0.0433    0.0129   -0.0078    0.0067
          44    0.0112   -0.0132    0.0034    0.0004    0.0402   -0.0057    0.0004   -0.0017
          45   -0.0025    0.0886   -0.0470    0.0086    0.0198    0.0696    0.0465    0.0629
          46    0.0751   -0.0329   -0.0445   -0.0135   -0.0622    0.0026   -0.0251   -0.0428
          47   -0.0040    0.0520   -0.0603   -0.0221    0.0625    0.0682    0.0755    0.0791
          48   -0.0071    0.0506   -0.0135    0.0093    0.0081    0.0287    0.0035    0.0174


   Root No.       9        10        11        12        13        14        15        16

                 4 Ag      2 Bg      3 Bu      3 Au      4 Bu      4 Au      3 Bg      5 Ag  

                 849.5     859.7     860.1     928.3     982.3     985.0    1004.2    1010.1
  
           1   -0.0068    0.0002    0.0073    0.0029    0.0041    0.0034   -0.0017    0.0083
           2   -0.0132    0.0074    0.0105   -0.0077   -0.0037   -0.0004   -0.0035   -0.0073
           3    0.0090   -0.0158   -0.0066    0.0182    0.0080    0.0151    0.0122    0.0120
           4    0.0068    0.0003    0.0073   -0.0029    0.0040   -0.0034   -0.0017   -0.0083
           5   -0.0132   -0.0073   -0.0104   -0.0076    0.0037   -0.0004    0.0035   -0.0073
           6   -0.0091   -0.0159   -0.0067   -0.0182    0.0080   -0.0151    0.0122   -0.0120
           7    0.0068   -0.0002    0.0073    0.0029    0.0041    0.0034    0.0017   -0.0083
           8    0.0132   -0.0074    0.0105   -0.0077   -0.0037   -0.0004    0.0035    0.0073
           9   -0.0090    0.0158   -0.0066    0.0182    0.0080    0.0150   -0.0122   -0.0120
          10   -0.0068   -0.0003    0.0073   -0.0029    0.0040   -0.0034    0.0017    0.0083
          11    0.0132    0.0073   -0.0104   -0.0076    0.0037   -0.0003   -0.0035    0.0073
          12    0.0091    0.0159   -0.0067   -0.0182    0.0080   -0.0150   -0.0122    0.0120
          13    0.0281   -0.0000   -0.0301   -0.0000   -0.0279    0.0000    0.0000   -0.0288
          14    0.0000    0.0053   -0.0001    0.0058   -0.0000   -0.0084    0.0000   -0.0000
          15    0.0070    0.0000    0.0056    0.0000   -0.0126    0.0000    0.0000   -0.0051
          16   -0.0281    0.0000   -0.0301   -0.0000   -0.0279   -0.0000   -0.0000    0.0288
          17   -0.0000   -0.0053   -0.0001    0.0058   -0.0000   -0.0084   -0.0000    0.0000
          18   -0.0070   -0.0000    0.0056    0.0000   -0.0126   -0.0000   -0.0000    0.0051
          19   -0.1101    0.0000    0.0843   -0.0001    0.1648   -0.0000   -0.0001    0.1466
          20   -0.0001   -0.0184    0.0001    0.0423    0.0002    0.0368    0.0500    0.0002
          21   -0.0239   -0.0000    0.0287    0.0001    0.0325    0.0001    0.0001    0.0358
          22   -0.0982    0.0879    0.1113   -0.1113   -0.0478    0.0919    0.0701   -0.0718
          23   -0.0092    0.0242    0.0001   -0.0111   -0.0084   -0.0535   -0.0493   -0.0078
          24   -0.0300    0.0637    0.0240   -0.0474   -0.0286   -0.0567   -0.0535   -0.0259
          25    0.0559   -0.0919   -0.0609    0.0706    0.0834   -0.0163   -0.0702    0.0664
          26    0.0175   -0.0587   -0.0085    0.0466    0.0116    0.0899    0.0856    0.0079
          27   -0.0040    0.0095    0.0072   -0.0014   -0.0084    0.0035    0.0097   -0.0011
          28   -0.0559   -0.0921   -0.0610   -0.0707    0.0834    0.0160   -0.0700   -0.0664
          29    0.0173    0.0584    0.0083    0.0463   -0.0113    0.0900   -0.0858    0.0077
          30    0.0041    0.0098    0.0072    0.0016   -0.0085   -0.0031    0.0093    0.0012
          31    0.0983    0.0879    0.1113    0.1113   -0.0478   -0.0917    0.0699    0.0718
          32   -0.0090   -0.0242    0.0001   -0.0109    0.0084   -0.0540    0.0497   -0.0077
          33    0.0300    0.0636    0.0240    0.0473   -0.0286    0.0565   -0.0533    0.0259
          34    0.1101   -0.0000    0.0843   -0.0000    0.1648   -0.0001    0.0001   -0.1466
          35    0.0001    0.0184    0.0001    0.0423    0.0002    0.0368   -0.0500   -0.0002
          36    0.0239    0.0000    0.0287    0.0001    0.0325    0.0001   -0.0001   -0.0358
          37    0.0982   -0.0879    0.1113   -0.1113   -0.0478    0.0919   -0.0701    0.0718
          38    0.0092   -0.0242    0.0001   -0.0111   -0.0084   -0.0535    0.0493    0.0078
          39    0.0300   -0.0637    0.0240   -0.0474   -0.0286   -0.0568    0.0535    0.0259
          40   -0.0559    0.0919   -0.0609    0.0705    0.0834   -0.0162    0.0702   -0.0664
          41   -0.0175    0.0587   -0.0085    0.0466    0.0116    0.0899   -0.0856   -0.0079
          42    0.0040   -0.0095    0.0072   -0.0014   -0.0084    0.0034   -0.0097    0.0011
          43   -0.0983   -0.0880    0.1113    0.1113   -0.0478   -0.0917   -0.0699   -0.0718
          44    0.0090    0.0242    0.0001   -0.0109    0.0084   -0.0540   -0.0497    0.0077
          45   -0.0300   -0.0636    0.0240    0.0473   -0.0286    0.0565    0.0533   -0.0259
          46    0.0559    0.0921   -0.0609   -0.0707    0.0834    0.0159    0.0700    0.0664
          47   -0.0173   -0.0584    0.0083    0.0463   -0.0113    0.0900    0.0858   -0.0077
          48   -0.0041   -0.0098    0.0072    0.0016   -0.0084   -0.0030   -0.0093   -0.0012


   Root No.      17        18        19        20        21        22        23        24

                 5 Au      5 Bu      6 Ag      7 Ag      4 Bg      6 Bu      6 Au      5 Bg  

                1031.3    1061.9    1072.0    1142.1    1205.2    1208.9    1309.3    1313.4
  
           1    0.0112    0.0038   -0.0001   -0.0059    0.0211   -0.0209   -0.0004    0.0067
           2    0.0094    0.0294   -0.0267   -0.0006   -0.0034    0.0014   -0.0064   -0.0050
           3    0.0048   -0.0102    0.0081    0.0057    0.0019   -0.0072   -0.0180   -0.0157
           4   -0.0113    0.0039    0.0002    0.0060    0.0211   -0.0209    0.0004    0.0067
           5    0.0094   -0.0294   -0.0266   -0.0006    0.0035   -0.0014   -0.0065    0.0051
           6   -0.0048   -0.0103   -0.0083   -0.0057    0.0019   -0.0072    0.0179   -0.0157
           7    0.0112    0.0038    0.0001    0.0059   -0.0211   -0.0209   -0.0004   -0.0067
           8    0.0094    0.0294    0.0267    0.0006    0.0034    0.0014   -0.0064    0.0050
           9    0.0048   -0.0103   -0.0081   -0.0057   -0.0019   -0.0072   -0.0180    0.0157
          10   -0.0112    0.0039   -0.0002   -0.0060   -0.0211   -0.0209    0.0004   -0.0067
          11    0.0094   -0.0294    0.0266    0.0006   -0.0035   -0.0014   -0.0065   -0.0051
          12   -0.0047   -0.0104    0.0083    0.0057   -0.0019   -0.0072    0.0179    0.0157
          13    0.0000   -0.0008   -0.0071    0.0104    0.0000    0.0089    0.0000    0.0000
          14   -0.0117    0.0000    0.0000    0.0000   -0.0034   -0.0000   -0.0001   -0.0055
          15    0.0000    0.0046   -0.0075   -0.0010   -0.0000    0.0140    0.0000   -0.0000
          16   -0.0000   -0.0008    0.0071   -0.0104   -0.0000    0.0089   -0.0000   -0.0000
          17   -0.0117   -0.0000   -0.0000   -0.0000    0.0034   -0.0000   -0.0001    0.0055
          18   -0.0001    0.0046    0.0075    0.0010    0.0000    0.0140   -0.0000    0.0000
          19    0.0001    0.0175   -0.0053    0.0031    0.0000   -0.0136   -0.0004   -0.0004
          20   -0.0203    0.0001    0.0000   -0.0000   -0.0258   -0.0001    0.2900    0.2878
          21    0.0000    0.0091   -0.0081   -0.0009   -0.0001    0.0080    0.0007    0.0007
          22    0.0636   -0.0678    0.0491    0.1038   -0.1030    0.0839    0.0181   -0.0212
          23    0.0045    0.0900   -0.0782   -0.0270    0.0173   -0.0082   -0.0110   -0.0024
          24    0.0248    0.0896   -0.0808   -0.0023   -0.0088    0.0197   -0.0161   -0.0195
          25    0.1453    0.0181   -0.0612    0.1269   -0.1072    0.1193    0.0127   -0.0029
          26   -0.0365   -0.0599    0.0652    0.0006    0.0064   -0.0308   -0.0560   -0.0557
          27   -0.0100    0.0012    0.0025   -0.0133    0.0189   -0.0217   -0.0148   -0.0100
          28   -0.1452    0.0179    0.0610   -0.1269   -0.1072    0.1192   -0.0125   -0.0031
          29   -0.0370    0.0600    0.0654    0.0002   -0.0068    0.0313   -0.0561    0.0557
          30    0.0099    0.0015   -0.0022    0.0133    0.0189   -0.0216    0.0145   -0.0098
          31   -0.0636   -0.0675   -0.0489   -0.1037   -0.1029    0.0838   -0.0180   -0.0212
          32    0.0044   -0.0906   -0.0787   -0.0274   -0.0176    0.0083   -0.0111    0.0024
          33   -0.0248    0.0891    0.0804    0.0022   -0.0089    0.0198    0.0160   -0.0195
          34   -0.0000    0.0175    0.0053   -0.0031   -0.0000   -0.0136   -0.0005    0.0004
          35   -0.0203   -0.0000   -0.0000    0.0000    0.0258   -0.0000    0.2900   -0.2878
          36   -0.0001    0.0091    0.0081    0.0009    0.0001    0.0081    0.0007   -0.0007
          37    0.0635   -0.0678   -0.0491   -0.1038    0.1030    0.0838    0.0180    0.0212
          38    0.0045    0.0900    0.0782    0.0270   -0.0173   -0.0081   -0.0110    0.0024
          39    0.0247    0.0894    0.0808    0.0023    0.0088    0.0198   -0.0161    0.0195
          40    0.1454    0.0181    0.0612   -0.1269    0.1072    0.1193    0.0127    0.0029
          41   -0.0365   -0.0598   -0.0652   -0.0006   -0.0064   -0.0309   -0.0560    0.0557
          42   -0.0101    0.0011   -0.0025    0.0133   -0.0189   -0.0217   -0.0148    0.0100
          43   -0.0635   -0.0676    0.0489    0.1037    0.1029    0.0838   -0.0180    0.0212
          44    0.0044   -0.0906    0.0787    0.0274    0.0176    0.0083   -0.0111   -0.0024
          45   -0.0247    0.0890   -0.0804   -0.0022    0.0089    0.0198    0.0160    0.0195
          46   -0.1453    0.0179   -0.0610    0.1269    0.1072    0.1192   -0.0125    0.0031
          47   -0.0370    0.0599   -0.0654   -0.0002    0.0068    0.0313   -0.0561   -0.0557
          48    0.0100    0.0014    0.0022   -0.0133   -0.0189   -0.0216    0.0145    0.0098


   Root No.      25        26        27        28        29        30        31        32

                 8 Ag      7 Bu      7 Au      6 Bg      9 Ag      8 Bu      8 Au      7 Bg  

                1326.9    1337.5    1372.0    1375.2    1436.6    1462.1    1519.3    1667.2
  
           1   -0.0011   -0.0074   -0.0005   -0.0003   -0.0017    0.0099   -0.0172   -0.0121
           2    0.0095    0.0064   -0.0104    0.0096    0.0331   -0.0402   -0.0361    0.0729
           3    0.0139    0.0101   -0.0081    0.0069    0.0238   -0.0252   -0.0123    0.0296
           4    0.0011   -0.0074    0.0005   -0.0003    0.0016    0.0098    0.0173   -0.0119
           5    0.0096   -0.0065   -0.0104   -0.0097    0.0332    0.0403   -0.0361   -0.0731
           6   -0.0139    0.0100    0.0080    0.0068   -0.0237   -0.0250    0.0122    0.0292
           7    0.0011   -0.0074   -0.0005    0.0003    0.0017    0.0099   -0.0172    0.0121
           8   -0.0095    0.0064   -0.0104   -0.0096   -0.0331   -0.0402   -0.0361   -0.0729
           9   -0.0139    0.0100   -0.0081   -0.0069   -0.0238   -0.0250   -0.0124   -0.0296
          10   -0.0011   -0.0074    0.0005    0.0003   -0.0016    0.0098    0.0173    0.0119
          11   -0.0096   -0.0065   -0.0104    0.0097   -0.0332    0.0403   -0.0361    0.0731
          12    0.0139    0.0100    0.0080   -0.0068    0.0237   -0.0249    0.0122   -0.0292
          13    0.0089    0.0078    0.0000   -0.0000    0.0135   -0.0157   -0.0001    0.0002
          14    0.0001    0.0001   -0.0072    0.0111    0.0001   -0.0001    0.0829   -0.1471
          15   -0.0345   -0.0287   -0.0000    0.0000   -0.0326    0.0370    0.0002   -0.0003
          16   -0.0089    0.0078    0.0000    0.0000   -0.0135   -0.0157   -0.0001   -0.0002
          17   -0.0001    0.0001   -0.0072   -0.0111   -0.0001   -0.0001    0.0829    0.1471
          18    0.0345   -0.0287   -0.0000   -0.0000    0.0326    0.0370    0.0002    0.0003
          19    0.0114    0.0062   -0.0001    0.0001    0.0018   -0.0022    0.0001   -0.0001
          20    0.0001    0.0001    0.0332   -0.0361    0.0001   -0.0002   -0.0555    0.0389
          21   -0.0285   -0.0249    0.0001   -0.0001   -0.0257    0.0288   -0.0001    0.0001
          22   -0.0025    0.0283    0.0008    0.0052   -0.0055   -0.0295    0.0637   -0.0012
          23    0.0395    0.0345    0.0488   -0.0494   -0.0304    0.0309   -0.0399    0.0350
          24    0.0605    0.0704    0.1018   -0.1003   -0.0998    0.0908   -0.0107    0.0109
          25   -0.0030    0.0106    0.0155   -0.0087   -0.0205    0.0064    0.0591   -0.0158
          26    0.1277    0.1244    0.1010   -0.1009   -0.0655    0.0605    0.0039   -0.0175
          27   -0.0007   -0.0057   -0.0180    0.0163    0.0283   -0.0274   -0.0215    0.0332
          28    0.0026    0.0110   -0.0158   -0.0090    0.0207    0.0066   -0.0591   -0.0159
          29    0.1277   -0.1243    0.1009    0.1008   -0.0653   -0.0603    0.0036    0.0173
          30    0.0013   -0.0063    0.0185    0.0168   -0.0286   -0.0277    0.0216    0.0333
          31    0.0024    0.0284   -0.0010    0.0051    0.0056   -0.0294   -0.0636   -0.0011
          32    0.0398   -0.0347    0.0493    0.0499   -0.0308   -0.0315   -0.0401   -0.0350
          33   -0.0603    0.0702   -0.1016   -0.1001    0.0996    0.0906    0.0106    0.0107
          34   -0.0114    0.0061   -0.0000   -0.0001   -0.0018   -0.0021    0.0001    0.0001
          35   -0.0001    0.0000    0.0332    0.0361   -0.0001    0.0000   -0.0555   -0.0389
          36    0.0285   -0.0249    0.0001    0.0001    0.0257    0.0288   -0.0001   -0.0001
          37    0.0025    0.0283    0.0008   -0.0052    0.0055   -0.0295    0.0637    0.0012
          38   -0.0395    0.0344    0.0488    0.0494    0.0304    0.0310   -0.0399   -0.0350
          39   -0.0605    0.0702    0.1018    0.1003    0.0998    0.0910   -0.0107   -0.0109
          40    0.0030    0.0106    0.0155    0.0087    0.0205    0.0064    0.0591    0.0158
          41   -0.1277    0.1245    0.1010    0.1009    0.0655    0.0603    0.0039    0.0175
          42    0.0007   -0.0059   -0.0180   -0.0163   -0.0283   -0.0272   -0.0215   -0.0332
          43   -0.0024    0.0285   -0.0010   -0.0051   -0.0056   -0.0294   -0.0636    0.0011
          44   -0.0398   -0.0347    0.0493   -0.0499    0.0308   -0.0315   -0.0402    0.0350
          45    0.0603    0.0701   -0.1016    0.1001   -0.0996    0.0909    0.0105   -0.0107
          46   -0.0026    0.0110   -0.0158    0.0090   -0.0207    0.0066   -0.0591    0.0159
          47   -0.1277   -0.1244    0.1009   -0.1008    0.0653   -0.0602    0.0036   -0.0173
          48   -0.0013   -0.0064    0.0185   -0.0168    0.0286   -0.0275    0.0216   -0.0333


   Root No.      33        34        35        36        37        38        39        40

                10 Ag      9 Au      9 Bu      8 Bg     10 Bu      9 Bg     10 Au     11 Ag  

                2695.8    2696.8    2700.6    2703.2    2755.0    2760.1    2763.9    2765.4
  
           1    0.0002    0.0004    0.0001   -0.0004    0.0026   -0.0033   -0.0018   -0.0015
           2    0.0058    0.0059    0.0058   -0.0061    0.0077   -0.0086   -0.0091   -0.0072
           3   -0.0114   -0.0131   -0.0110    0.0132    0.0008   -0.0041   -0.0034    0.0004
           4   -0.0003   -0.0005    0.0001   -0.0004    0.0027   -0.0033    0.0018    0.0016
           5    0.0058    0.0059   -0.0058    0.0061   -0.0077    0.0086   -0.0091   -0.0072
           6    0.0114    0.0131   -0.0111    0.0132    0.0007   -0.0041    0.0033   -0.0004
           7   -0.0002    0.0004    0.0001    0.0004    0.0026    0.0033   -0.0018    0.0015
           8   -0.0058    0.0059    0.0058    0.0061    0.0077    0.0086   -0.0091    0.0072
           9    0.0114   -0.0131   -0.0110   -0.0132    0.0009    0.0041   -0.0034   -0.0004
          10    0.0003   -0.0005    0.0001    0.0004    0.0027    0.0033    0.0018   -0.0016
          11   -0.0058    0.0059   -0.0058   -0.0061   -0.0077   -0.0086   -0.0091    0.0072
          12   -0.0114    0.0132   -0.0111   -0.0132    0.0008    0.0041    0.0033    0.0004
          13   -0.0006    0.0000   -0.0010    0.0000    0.0019    0.0000    0.0000   -0.0029
          14   -0.0000    0.0008   -0.0000   -0.0012    0.0000   -0.0023   -0.0022   -0.0000
          15    0.0022    0.0000    0.0032    0.0000   -0.0078    0.0000    0.0000    0.0112
          16    0.0006   -0.0000   -0.0010   -0.0000    0.0019   -0.0000   -0.0000    0.0029
          17    0.0000    0.0008   -0.0000    0.0012    0.0000    0.0023   -0.0022    0.0000
          18   -0.0022   -0.0000    0.0032   -0.0000   -0.0078    0.0000   -0.0000   -0.0112
          19    0.0119    0.0000    0.0148    0.0000   -0.0246    0.0000    0.0000    0.0347
          20    0.0001    0.0019    0.0002   -0.0018   -0.0003    0.0011    0.0012    0.0004
          21   -0.0514    0.0000   -0.0636   -0.0000    0.1078   -0.0000    0.0000   -0.1521
          22   -0.0187   -0.0209   -0.0193    0.0222   -0.0212    0.0230    0.0253    0.0204
          23   -0.0835   -0.0935   -0.0854    0.0992   -0.0978    0.1079    0.1136    0.0918
          24    0.0378    0.0423    0.0392   -0.0455    0.0517   -0.0583   -0.0608   -0.0480
          25    0.0167    0.0187    0.0167   -0.0191   -0.0092    0.0154    0.0140    0.0070
          26    0.0156    0.0173    0.0146   -0.0167   -0.0033    0.0084    0.0074    0.0017
          27    0.1139    0.1271    0.1049   -0.1199   -0.0691    0.1121    0.1059    0.0528
          28   -0.0167   -0.0187    0.0168   -0.0192   -0.0092    0.0154   -0.0141   -0.0070
          29    0.0161    0.0178   -0.0150    0.0172    0.0036   -0.0089    0.0078    0.0019
          30   -0.1138   -0.1270    0.1049   -0.1198   -0.0691    0.1121   -0.1059   -0.0528
          31    0.0189    0.0212   -0.0195    0.0225   -0.0215    0.0233   -0.0256   -0.0207
          32   -0.0833   -0.0932    0.0852   -0.0989    0.0975   -0.1076    0.1132    0.0915
          33   -0.0382   -0.0427    0.0396   -0.0459    0.0522   -0.0588    0.0614    0.0485
          34   -0.0119   -0.0000    0.0148   -0.0000   -0.0245    0.0000   -0.0000   -0.0347
          35   -0.0001    0.0019    0.0002    0.0018   -0.0002   -0.0011    0.0012   -0.0004
          36    0.0514   -0.0000   -0.0636    0.0000    0.1078   -0.0001   -0.0000    0.1521
          37    0.0187   -0.0209   -0.0193   -0.0222   -0.0212   -0.0230    0.0253   -0.0204
          38    0.0835   -0.0935   -0.0854   -0.0992   -0.0979   -0.1078    0.1136   -0.0917
          39   -0.0378    0.0423    0.0391    0.0455    0.0518    0.0582   -0.0609    0.0480
          40   -0.0167    0.0187    0.0167    0.0191   -0.0092   -0.0154    0.0141   -0.0070
          41   -0.0156    0.0173    0.0146    0.0167   -0.0034   -0.0084    0.0074   -0.0017
          42   -0.1139    0.1271    0.1049    0.1199   -0.0691   -0.1121    0.1059   -0.0528
          43   -0.0189    0.0212   -0.0195   -0.0225   -0.0215   -0.0233   -0.0256    0.0207
          44    0.0833   -0.0932    0.0852    0.0989    0.0976    0.1075    0.1132   -0.0914
          45    0.0382   -0.0427    0.0395    0.0459    0.0523    0.0587    0.0614   -0.0485
          46    0.0167   -0.0187    0.0167    0.0192   -0.0092   -0.0154   -0.0141    0.0070
          47   -0.0161    0.0178   -0.0150   -0.0172    0.0037    0.0089    0.0078   -0.0019
          48    0.1138   -0.1270    0.1049    0.1198   -0.0691   -0.1121   -0.1059    0.0527


   Root No.      41        42

                11 Bu     12 Ag  

                2768.9    2773.1
  
           1   -0.0013    0.0007
           2   -0.0037    0.0058
           3   -0.0066    0.0050
           4   -0.0014   -0.0007
           5    0.0038    0.0058
           6   -0.0066   -0.0050
           7   -0.0014   -0.0007
           8   -0.0037   -0.0058
           9   -0.0067   -0.0050
          10   -0.0014    0.0007
          11    0.0038   -0.0058
          12   -0.0066    0.0050
          13    0.0029   -0.0024
          14    0.0000   -0.0000
          15   -0.0150    0.0116
          16    0.0029    0.0024
          17    0.0000    0.0000
          18   -0.0150   -0.0116
          19   -0.0437    0.0337
          20   -0.0005    0.0004
          21    0.1932   -0.1484
          22    0.0077   -0.0135
          23    0.0349   -0.0602
          24   -0.0208    0.0337
          25    0.0130   -0.0116
          26    0.0100   -0.0084
          27    0.0928   -0.0889
          28    0.0130    0.0116
          29   -0.0104   -0.0088
          30    0.0928    0.0888
          31    0.0079    0.0137
          32   -0.0348   -0.0600
          33   -0.0210   -0.0340
          34   -0.0437   -0.0337
          35   -0.0005   -0.0004
          36    0.1931    0.1484
          37    0.0077    0.0135
          38    0.0349    0.0602
          39   -0.0208   -0.0337
          40    0.0130    0.0116
          41    0.0100    0.0084
          42    0.0928    0.0889
          43    0.0078   -0.0137
          44   -0.0348    0.0600
          45   -0.0210    0.0340
          46    0.0130   -0.0116
          47   -0.0104    0.0088
          48    0.0927   -0.0888


           MASS-WEIGHTED COORDINATE ANALYSIS (NORMAL COORDINATES)


   Root No.       1         2         3         4         5         6         7         8

                 1 Au      2 Au      1 Bu      1 Ag      1 Bg      2 Ag      3 Ag      2 Bu  

                -904.8     179.3     360.9     365.0     365.9     433.6     489.9     509.3
  
           1    0.4725    0.0130   -0.1565   -0.4394    0.3199    0.0964   -0.1788   -0.1298
           2   -0.0762    0.0606    0.1077    0.0543    0.2904   -0.1459   -0.2063   -0.2168
           3   -0.0445   -0.3666   -0.1119    0.0554   -0.0244    0.2134   -0.0420    0.0507
           4   -0.4722   -0.0132   -0.1562    0.4390    0.3203   -0.0960    0.1794   -0.1305
           5   -0.0779    0.0588   -0.1077    0.0553   -0.2893   -0.1453   -0.2060    0.2162
           6    0.0442    0.3668   -0.1124   -0.0551   -0.0258   -0.2138    0.0408    0.0516
           7    0.4724    0.0130   -0.1562    0.4394   -0.3199   -0.0964    0.1788   -0.1295
           8   -0.0762    0.0605    0.1074   -0.0544   -0.2904    0.1459    0.2063   -0.2171
           9   -0.0455   -0.3665   -0.1120   -0.0554    0.0244   -0.2134    0.0420    0.0513
          10   -0.4722   -0.0131   -0.1559   -0.4390   -0.3203    0.0960   -0.1794   -0.1302
          11   -0.0779    0.0588   -0.1074   -0.0553    0.2894    0.1453    0.2060    0.2164
          12    0.0451    0.3669   -0.1125    0.0551    0.0258    0.2138   -0.0408    0.0525
          13    0.0001    0.0002    0.3168   -0.2999   -0.0002   -0.2786    0.2985    0.2376
          14    0.1549   -0.1364    0.0001   -0.0002    0.2202    0.0001    0.0011    0.0009
          15    0.0010   -0.0003    0.2748    0.0726    0.0005   -0.1856   -0.2876   -0.2272
          16   -0.0006    0.0002    0.3169    0.2999    0.0002    0.2786   -0.2985    0.2375
          17    0.1549   -0.1365   -0.0004    0.0002   -0.2202   -0.0001   -0.0011    0.0009
          18   -0.0003   -0.0003    0.2748   -0.0726   -0.0005    0.1856    0.2876   -0.2274
          19    0.0003    0.0002    0.3256   -0.0533   -0.0000   -0.2840    0.2888    0.2742
          20   -0.0181   -0.1375    0.0003   -0.0000    0.0412   -0.0002    0.0005    0.0004
          21    0.0002   -0.0003    0.1247    0.0338    0.0001   -0.0900   -0.0263   -0.0064
          22   -0.0099   -0.0523   -0.0601   -0.0238    0.0775    0.0339   -0.0182    0.0180
          23    0.0120   -0.0321   -0.0079   -0.0004    0.0726    0.0142   -0.0015    0.0038
          24    0.0031   -0.2222   -0.1162    0.0090   -0.0353    0.1840    0.1073    0.1709
          25   -0.0807    0.0820   -0.1107   -0.0142    0.1113    0.0075   -0.0576   -0.1160
          26   -0.0046    0.1312    0.1490    0.0231    0.1126   -0.1806   -0.1746   -0.2159
          27    0.0079   -0.1263   -0.0328    0.0098   -0.0141    0.0752    0.0073    0.0460
          28    0.0808   -0.0824   -0.1103    0.0141    0.1116   -0.0069    0.0581   -0.1167
          29   -0.0043    0.1303   -0.1492    0.0229   -0.1122   -0.1803   -0.1745    0.2153
          30   -0.0079    0.1269   -0.0335   -0.0097   -0.0146   -0.0760   -0.0082    0.0470
          31    0.0099    0.0524   -0.0602    0.0236    0.0777   -0.0340    0.0181    0.0179
          32    0.0120   -0.0330    0.0082   -0.0005   -0.0722    0.0149   -0.0009   -0.0045
          33   -0.0030    0.2221   -0.1162   -0.0090   -0.0356   -0.1838   -0.1075    0.1709
          34   -0.0002    0.0002    0.3257    0.0533    0.0000    0.2840   -0.2888    0.2742
          35   -0.0181   -0.1375    0.0001    0.0000   -0.0412    0.0002   -0.0005    0.0005
          36   -0.0003   -0.0003    0.1247   -0.0338   -0.0001    0.0900    0.0263   -0.0065
          37   -0.0101   -0.0523   -0.0600    0.0238   -0.0775   -0.0339    0.0182    0.0181
          38    0.0120   -0.0321   -0.0080    0.0004   -0.0726   -0.0142    0.0015    0.0038
          39    0.0027   -0.2222   -0.1163   -0.0089    0.0353   -0.1840   -0.1073    0.1713
          40   -0.0804    0.0820   -0.1107    0.0142   -0.1112   -0.0075    0.0576   -0.1159
          41   -0.0046    0.1312    0.1489   -0.0231   -0.1126    0.1806    0.1746   -0.2162
          42    0.0076   -0.1263   -0.0328   -0.0098    0.0141   -0.0752   -0.0073    0.0462
          43    0.0100    0.0524   -0.0600   -0.0236   -0.0777    0.0340   -0.0181    0.0181
          44    0.0120   -0.0330    0.0083    0.0005    0.0722   -0.0149    0.0009   -0.0045
          45   -0.0027    0.2221   -0.1162    0.0090    0.0356    0.1838    0.1075    0.1713
          46    0.0804   -0.0824   -0.1102   -0.0140   -0.1116    0.0069   -0.0581   -0.1166
          47   -0.0043    0.1303   -0.1491   -0.0229    0.1122    0.1803    0.1745    0.2156
          48   -0.0076    0.1269   -0.0335    0.0097    0.0146    0.0760    0.0082    0.0473


   Root No.       9        10        11        12        13        14        15        16

                 4 Ag      2 Bg      3 Bu      3 Au      4 Bu      4 Au      3 Bg      5 Ag  

                 849.5     859.7     860.1     928.3     982.3     985.0    1004.2    1010.1
  
           1   -0.0685    0.0024    0.0739    0.0298    0.0397    0.0362   -0.0185    0.0829
           2   -0.1340    0.0758    0.1065   -0.0798   -0.0364   -0.0043   -0.0379   -0.0727
           3    0.0916   -0.1622   -0.0673    0.1883    0.0784    0.1590    0.1313    0.1195
           4    0.0689    0.0026    0.0742   -0.0295    0.0396   -0.0362   -0.0187   -0.0827
           5   -0.1334   -0.0750   -0.1060   -0.0790    0.0362   -0.0037    0.0372   -0.0723
           6   -0.0921   -0.1626   -0.0677   -0.1887    0.0786   -0.1591    0.1314   -0.1197
           7    0.0685   -0.0024    0.0740    0.0298    0.0396    0.0363    0.0185   -0.0829
           8    0.1340   -0.0758    0.1064   -0.0798   -0.0363   -0.0043    0.0379    0.0727
           9   -0.0916    0.1623   -0.0673    0.1885    0.0785    0.1585   -0.1313   -0.1195
          10   -0.0689   -0.0027    0.0744   -0.0296    0.0395   -0.0362    0.0187    0.0827
          11    0.1334    0.0750   -0.1058   -0.0790    0.0361   -0.0037   -0.0372    0.0723
          12    0.0921    0.1626   -0.0679   -0.1889    0.0787   -0.1586   -0.1314    0.1197
          13    0.2847   -0.0000   -0.3062   -0.0002   -0.2729    0.0003    0.0000   -0.2872
          14    0.0003    0.0547   -0.0005    0.0605   -0.0002   -0.0885    0.0001   -0.0003
          15    0.0707    0.0001    0.0573    0.0000   -0.1230    0.0001    0.0000   -0.0503
          16   -0.2847    0.0001   -0.3061   -0.0000   -0.2729   -0.0000   -0.0000    0.2872
          17   -0.0003   -0.0547   -0.0007    0.0605   -0.0001   -0.0885   -0.0001    0.0003
          18   -0.0707   -0.0001    0.0574    0.0003   -0.1230   -0.0005   -0.0000    0.0503
          19   -0.3230    0.0001    0.2483   -0.0003    0.4668   -0.0001   -0.0002    0.4230
          20   -0.0003   -0.0547    0.0002    0.1270    0.0005    0.1124    0.1558    0.0004
          21   -0.0701   -0.0001    0.0845    0.0003    0.0922    0.0004    0.0004    0.1033
          22   -0.2884    0.2610    0.3279   -0.3341   -0.1354    0.2805    0.2184   -0.2072
          23   -0.0269    0.0718    0.0004   -0.0332   -0.0239   -0.1632   -0.1535   -0.0224
          24   -0.0881    0.1893    0.0708   -0.1423   -0.0811   -0.1732   -0.1668   -0.0748
          25    0.1640   -0.2730   -0.1795    0.2118    0.2363   -0.0497   -0.2187    0.1917
          26    0.0512   -0.1745   -0.0252    0.1398    0.0330    0.2744    0.2665    0.0227
          27   -0.0117    0.0283    0.0211   -0.0041   -0.0238    0.0106    0.0302   -0.0033
          28   -0.1642   -0.2736   -0.1796   -0.2123    0.2364    0.0488   -0.2179   -0.1918
          29    0.0507    0.1735    0.0245    0.1391   -0.0321    0.2746   -0.2674    0.0221
          30    0.0120    0.0291    0.0213    0.0048   -0.0240   -0.0093    0.0289    0.0035
          31    0.2885    0.2612    0.3279    0.3342   -0.1355   -0.2800    0.2179    0.2073
          32   -0.0264   -0.0719    0.0003   -0.0329    0.0238   -0.1649    0.1549   -0.0221
          33    0.0881    0.1889    0.0708    0.1421   -0.0810    0.1725   -0.1661    0.0747
          34    0.3230   -0.0001    0.2483   -0.0001    0.4668   -0.0003    0.0002   -0.4230
          35    0.0003    0.0547    0.0001    0.1270    0.0005    0.1124   -0.1558   -0.0004
          36    0.0701    0.0001    0.0845    0.0003    0.0922    0.0002   -0.0004   -0.1033
          37    0.2884   -0.2611    0.3279   -0.3340   -0.1354    0.2804   -0.2184    0.2072
          38    0.0269   -0.0718    0.0003   -0.0332   -0.0238   -0.1632    0.1535    0.0224
          39    0.0881   -0.1893    0.0707   -0.1422   -0.0811   -0.1734    0.1668    0.0748
          40   -0.1640    0.2731   -0.1794    0.2118    0.2362   -0.0495    0.2187   -0.1917
          41   -0.0512    0.1745   -0.0251    0.1398    0.0330    0.2744   -0.2665   -0.0227
          42    0.0117   -0.0283    0.0211   -0.0041   -0.0238    0.0105   -0.0302    0.0033
          43   -0.2885   -0.2613    0.3279    0.3342   -0.1355   -0.2799   -0.2179   -0.2073
          44    0.0264    0.0719    0.0004   -0.0329    0.0238   -0.1649   -0.1549    0.0221
          45   -0.0881   -0.1889    0.0707    0.1420   -0.0809    0.1726    0.1661   -0.0747
          46    0.1642    0.2736   -0.1794   -0.2122    0.2363    0.0486    0.2179    0.1918
          47   -0.0507   -0.1735    0.0245    0.1391   -0.0321    0.2746    0.2674   -0.0221
          48   -0.0120   -0.0291    0.0212    0.0047   -0.0239   -0.0092   -0.0289   -0.0035


   Root No.      17        18        19        20        21        22        23        24

                 5 Au      5 Bu      6 Ag      7 Ag      4 Bg      6 Bu      6 Au      5 Bg  

                1031.3    1061.9    1072.0    1142.1    1205.2    1208.9    1309.3    1313.4
  
           1    0.1098    0.0343   -0.0010   -0.0598    0.2149   -0.2057   -0.0028    0.0520
           2    0.0922    0.2652   -0.2533   -0.0063   -0.0347    0.0133   -0.0494   -0.0386
           3    0.0473   -0.0916    0.0774    0.0577    0.0193   -0.0710   -0.1378   -0.1221
           4   -0.1101    0.0351    0.0016    0.0601    0.2148   -0.2056    0.0030    0.0518
           5    0.0921   -0.2647   -0.2531   -0.0057    0.0353   -0.0136   -0.0500    0.0393
           6   -0.0469   -0.0929   -0.0787   -0.0577    0.0195   -0.0710    0.1376   -0.1220
           7    0.1098    0.0340    0.0010    0.0598   -0.2149   -0.2058   -0.0028   -0.0520
           8    0.0922    0.2654    0.2533    0.0063    0.0347    0.0134   -0.0494    0.0386
           9    0.0465   -0.0926   -0.0774   -0.0577   -0.0193   -0.0707   -0.1379    0.1222
          10   -0.1101    0.0349   -0.0016   -0.0601   -0.2148   -0.2057    0.0029   -0.0519
          11    0.0921   -0.2649    0.2531    0.0057   -0.0353   -0.0137   -0.0501   -0.0393
          12   -0.0461   -0.0938    0.0787    0.0577   -0.0195   -0.0708    0.1376    0.1220
          13    0.0004   -0.0072   -0.0674    0.1050    0.0000    0.0871    0.0000    0.0001
          14   -0.1145    0.0000    0.0001    0.0001   -0.0348   -0.0003   -0.0009   -0.0426
          15    0.0002    0.0416   -0.0714   -0.0101   -0.0001    0.1381    0.0000   -0.0001
          16   -0.0001   -0.0072    0.0674   -0.1050   -0.0000    0.0871   -0.0000   -0.0001
          17   -0.1145   -0.0002   -0.0001   -0.0001    0.0348   -0.0001   -0.0008    0.0426
          18   -0.0008    0.0416    0.0714    0.0101    0.0001    0.1382   -0.0000    0.0001
          19    0.0003    0.0456   -0.0146    0.0092    0.0001   -0.0387   -0.0010   -0.0010
          20   -0.0577    0.0002    0.0000   -0.0000   -0.0761   -0.0002    0.6445    0.6473
          21    0.0000    0.0236   -0.0222   -0.0025   -0.0002    0.0229    0.0015    0.0015
          22    0.1802   -0.1770    0.1352    0.3036   -0.3035    0.2391    0.0401   -0.0477
          23    0.0127    0.2349   -0.2152   -0.0790    0.0511   -0.0233   -0.0244   -0.0054
          24    0.0703    0.2338   -0.2223   -0.0067   -0.0260    0.0563   -0.0357   -0.0439
          25    0.4121    0.0473   -0.1685    0.3709   -0.3160    0.3402    0.0282   -0.0065
          26   -0.1035   -0.1565    0.1794    0.0019    0.0189   -0.0879   -0.1245   -0.1252
          27   -0.0285    0.0032    0.0070   -0.0388    0.0558   -0.0620   -0.0328   -0.0226
          28   -0.4118    0.0468    0.1679   -0.3708   -0.3160    0.3399   -0.0278   -0.0069
          29   -0.1050    0.1566    0.1799    0.0006   -0.0201    0.0893   -0.1247    0.1253
          30    0.0280    0.0039   -0.0061    0.0388    0.0558   -0.0616    0.0322   -0.0220
          31   -0.1803   -0.1763   -0.1346   -0.3032   -0.3033    0.2390   -0.0400   -0.0477
          32    0.0125   -0.2366   -0.2167   -0.0800   -0.0519    0.0237   -0.0247    0.0055
          33   -0.0702    0.2327    0.2212    0.0063   -0.0262    0.0564    0.0356   -0.0438
          34   -0.0001    0.0456    0.0146   -0.0092   -0.0001   -0.0386   -0.0010    0.0010
          35   -0.0577   -0.0001   -0.0000    0.0000    0.0761   -0.0000    0.6445   -0.6473
          36   -0.0003    0.0237    0.0222    0.0025    0.0002    0.0230    0.0015   -0.0015
          37    0.1801   -0.1771   -0.1352   -0.3035    0.3035    0.2390    0.0401    0.0477
          38    0.0127    0.2349    0.2152    0.0790   -0.0511   -0.0232   -0.0244    0.0054
          39    0.0700    0.2333    0.2223    0.0067    0.0260    0.0564   -0.0358    0.0439
          40    0.4124    0.0472    0.1685   -0.3709    0.3160    0.3401    0.0282    0.0065
          41   -0.1036   -0.1561   -0.1794   -0.0019   -0.0189   -0.0880   -0.1244    0.1252
          42   -0.0287    0.0029   -0.0070    0.0388   -0.0558   -0.0619   -0.0328    0.0226
          43   -0.1801   -0.1764    0.1346    0.3032    0.3033    0.2390   -0.0400    0.0477
          44    0.0125   -0.2365    0.2166    0.0800    0.0519    0.0237   -0.0247   -0.0055
          45   -0.0699    0.2322   -0.2212   -0.0063    0.0262    0.0565    0.0356    0.0438
          46   -0.4120    0.0467   -0.1679    0.3708    0.3160    0.3399   -0.0279    0.0069
          47   -0.1050    0.1563   -0.1799   -0.0006    0.0201    0.0893   -0.1247   -0.1253
          48    0.0283    0.0036    0.0061   -0.0388   -0.0558   -0.0615    0.0322    0.0220


   Root No.      25        26        27        28        29        30        31        32

                 8 Ag      7 Bu      7 Au      6 Bg      9 Ag      8 Bu      8 Au      7 Bg  

                1326.9    1337.5    1372.0    1375.2    1436.6    1462.1    1519.3    1667.2
  
           1   -0.0108   -0.0736   -0.0052   -0.0035   -0.0136    0.0746   -0.1095   -0.0458
           2    0.0903    0.0631   -0.1102    0.1030    0.2724   -0.3027   -0.2305    0.2758
           3    0.1325    0.0997   -0.0859    0.0733    0.1960   -0.1898   -0.0788    0.1119
           4    0.0106   -0.0734    0.0055   -0.0032    0.0128    0.0737    0.1104   -0.0449
           5    0.0910   -0.0638   -0.1106   -0.1033    0.2733    0.3039   -0.2304   -0.2764
           6   -0.1321    0.0993    0.0854    0.0727   -0.1947   -0.1882    0.0778    0.1106
           7    0.0108   -0.0735   -0.0052    0.0035    0.0136    0.0747   -0.1096    0.0458
           8   -0.0903    0.0631   -0.1102   -0.1030   -0.2724   -0.3028   -0.2304   -0.2758
[...]
      47      33.34862     18.13449         51.48311   0.17178     7   %  1.0749
      55      30.66627     20.81676         51.48302   0.17170     8   %  1.2690
      63      28.69824     22.78600         51.48424   0.17291     9   %  1.4492
      71      27.13210     24.35497         51.48707   0.17574    10   %  1.6200
      79      25.84465     25.64197         51.48662   0.17530    11   %  1.7813
      85      24.77914     26.70664         51.48578   0.17445    12   %  1.9352
      93      23.90578     27.59598         51.50177   0.19044    13   %  2.0818
     102      23.26050     28.34437         51.60487   0.29355    14   %  2.2080
     110      22.74838     29.05584         51.80422   0.49290    15   %  2.3207
     119      22.33855     29.71667         52.05522   0.74389    16   %  2.4254
     127      21.99327     30.34950         52.34277   1.03144    17   %  2.5265
     136      21.69779     30.96972         52.66752   1.35619    18   %  2.6184
     145      21.44163     31.57530         53.01693   1.70560    19   %  2.7099
     154      21.21679     32.17380         53.39059   2.07926    20   %  2.7980
     163      21.01841     32.76775         53.78616   2.47484    21   %  2.8819
     172      20.84316     33.35919         54.20235   2.89102    22   %  2.9619
     181      20.68485     33.94516         54.63001   3.31869    23   %  3.0433
     191      20.54585     34.53359         55.07944   3.76811    24   %  3.1161
     200      20.41942     35.11723         55.53665   4.22533    25   %  3.1889
     210      20.30307     35.69907         56.00214   4.69081    26   %  3.2621
     219      20.19730     36.28019         56.47749   5.16616    27   %  3.3337
     229      20.10240     36.85741         56.95981   5.64849    28   %  3.4015
     239      20.01492     37.43278         57.44770   6.13638    29   %  3.4675
     249      19.93531     38.00930         57.94460   6.63328    30   %  3.5317
     259      19.86267     38.58368         58.44634   7.13502    31   %  3.5939
     268      19.79387     39.15693         58.95081   7.63948    32   %  3.6571
     278      19.72943     39.68507         59.41450   8.10318    33   %  3.7170
     288      19.66858     40.30152         59.97010   8.65877    34   %  3.7800
     298      19.61007     40.84659         60.45666   9.14534    35   %  3.8388
     308      19.55646     41.42536         60.98182   9.67049    36   %  3.8982
     318      19.50577     42.00653         61.51230  10.20098    37   %  3.9562
     328      19.45818     42.58696         62.04513  10.73381    38   %  4.0133
     337      19.42321     43.10037         62.52358  11.21225    39   %  4.0615
     347      19.38167     43.67490         63.05656  11.74524    40   %  4.1166
     357      19.34010     44.24786         63.58796  12.27663    41   %  4.1708
     367      19.30200     44.81994         64.12195  12.81062    42   %  4.2238
     377      19.26554     45.39237         64.65791  13.34658    43   %  4.2761
     387      19.23091     45.96362         65.19453  13.88320    44   %  4.3274
     397      19.19697     46.53572         65.73269  14.42137    45   %  4.3777
     407      19.15939     47.12801         66.28740  14.97607    46   %  4.4303
     417      19.13473     47.67449         66.80922  15.49789    47   %  4.4755
     427      19.10684     48.24419         67.35103  16.03970    48   %  4.5232
     437      19.07882     48.81588         67.89470  16.58337    49   %  4.5704
     447      19.05238     49.39248         68.44486  17.13354    50   %  4.6167
     457      19.02656     49.96242         68.98898  17.67765    51   %  4.6623
     467      19.00205     50.53828         69.54033  18.22900    52   %  4.7072
     477      18.97800     51.11762         70.09562  18.78429    53   %  4.7512
     487      18.95589     51.69196         70.64784  19.33652    54   %  4.7947
     497      18.93459     52.27074         71.20533  19.89400    55   %  4.8376
     507      18.91375     52.85080         71.76454  20.45322    56   %  4.8800
     517      18.89589     53.44438         72.34026  21.02894    57   %  4.9223
     527      18.87408     54.03620         72.91028  21.59896    58   %  4.9641
     537      18.85501     54.62502         73.48003  22.16870    59   %  5.0049
     547      18.83821     55.22454         74.06275  22.75142    60   %  5.0455
     557      18.82022     55.83196         74.65218  23.34086    61   %  5.0859
     567      18.80314     56.44391         75.24705  23.93573    62   %  5.1259
     577      18.78579     57.06054         75.84633  24.53500    63   %  5.1652
     587      18.76750     57.66657         76.43407  25.12275    64   %  5.2037
     597      18.75234     58.26983         77.02216  25.71084    65   %  5.2414
     607      18.73774     58.88267         77.62041  26.30908    66   %  5.2788
     617      18.72468     59.50747         78.23216  26.92083    67   %  5.3161
     627      18.70810     60.13333         78.84144  27.53011    68   %  5.3530
     637      18.69316     60.74903         79.44219  28.13086    69   %  5.3889
     647      18.67849     61.35328         80.03178  28.72045    70   %  5.4239
     657      18.66822     61.96623         80.63445  29.32313    71   %  5.4585
     667      18.65603     62.59731         81.25334  29.94202    72   %  5.4934
     677      18.64324     63.23356         81.87680  30.56547    73   %  5.5278
     687      18.63237     63.87996         82.51233  31.20101    74   %  5.5619
     698      18.59448     64.58665         83.18112  31.86980    75   %  5.5993
     708      18.58257     65.24814         83.83072  32.51939    76   %  5.6328
     718      18.57115     65.92867         84.49982  33.18849    77   %  5.6663
     728      18.55953     66.61641         85.17594  33.86462    78   %  5.7000
     738      18.54858     67.33317         85.88175  34.57043    79   %  5.7337
     748      18.53788     68.11432         86.65220  35.34087    80   %  5.7686
     758      18.52737     68.93145         87.45881  36.14749    81   %  5.8041
     767      18.55916     69.73867         88.29782  36.98650    82   %  5.8377
     777      18.55145     70.64137         89.19282  37.88149    83   %  5.8742
     787      18.54450     71.61706         90.16156  38.85023    84   %  5.9114
     796      18.48813     72.53827         91.02641  39.71508    85   %  5.9448
     806      18.47818     73.65436         92.13254  40.82121    86   %  5.9835
     815      18.52817     74.80563         93.33380  42.02247    87   %  6.0204
     824      18.45964     75.93103         94.39067  43.07935    88   %  6.0558
     834      18.45066     77.29186         95.74251  44.43119    89   %  6.0963
     842      18.44673     78.54936         96.99609  45.68476    90   %  6.1298
     851      18.51436     80.25760         98.77196  47.46063    91   %  6.1705
     860      18.43075     81.56067         99.99142  48.68009    92   %  6.2081
     869      18.39676     82.18334        100.58010  49.26877    93   %  6.2322
     878      18.42981     82.87436        101.30417  49.99284    94   %  6.2549
     887      18.38667     83.62666        102.01333  50.70201    95   %  6.2809
     896      18.43079     84.52036        102.95115  51.63982    96   %  6.3075
     905      18.37869     85.47505        103.85375  52.54242    97   %  6.3360
     914      18.43507     86.70691        105.14198  53.83066    98   %  6.3669
     923      18.37245     87.99955        106.37200  55.06067    99   %  6.3982
     932      18.34389     89.21441        107.55831  56.24698   100   %  6.4309
     941      18.37425     89.87109        108.24534  56.93402   101   %  6.4497
     950      18.33529     90.55298        108.88827  57.57694   102   %  6.4722
     959      18.37462     91.33720        109.71182  58.40050   103   %  6.4940
     969      18.38104     92.32497        110.70601  59.39469   104   %  6.5208
     978      18.32893     93.35591        111.68484  60.37351   105   %  6.5468
     987      18.39974     94.74894        113.14868  61.83736   106   %  6.5754
     995      18.41181     96.27975        114.69157  63.38024   107   %  6.6027
    1005      18.29634     96.88361        115.17995  63.86863   108   %  6.6270
    1014      18.33144     97.58670        115.91814  64.60681   109   %  6.6446
    1023      18.28970     98.30104        116.59074  65.27941   110   %  6.6653
    1032      18.33604     99.15310        117.48913  66.17781   111   %  6.6855
    1041      18.28682    100.09876        118.38558  67.07426   112   %  6.7083
    1050      18.34888    101.30539        119.65427  68.34295   113   %  6.7323
    1059      18.28527    102.58534        120.87061  69.55928   114   %  6.7579


 IRC CALCULATION COMPLETE 
           INITIAL VELOCITY IN DRC (Angstroms/Femtosecond)
        -0.12784         0.02062         0.01204
         0.12776         0.02107        -0.01195
        -0.12783         0.02061         0.01232
         0.12778         0.02108        -0.01221
        -0.00002        -0.04191        -0.00027
         0.00016        -0.04192         0.00007
        -0.00027         0.01688        -0.00016
         0.00922        -0.01119        -0.00289
         0.07540         0.00428        -0.00738
        -0.07543         0.00399         0.00739
        -0.00922        -0.01125         0.00282
         0.00021         0.01687         0.00024
         0.00940        -0.01121        -0.00255
         0.07512         0.00426        -0.00706
        -0.00933        -0.01123         0.00251
        -0.07511         0.00401         0.00709

 GEOMETRY PRIORITY, STEP = 0.2000 ANGSTROMS



     POINT   POTENTIAL  +  ENERGY LOST   =   TOTAL      ERROR    REF%   MOVEMENT
       1      51.32209      0.00000         51.32209   0.00000     1   %  0.0000
       9      50.83396      0.59382         51.42779   0.11766     2   %  0.1300
      16      48.98516      2.50081         51.48597   0.17585     3   %  0.2821
      23      45.66555      5.81029         51.47585   0.16572     4   %  0.4614
      31      41.22097     10.26578         51.48675   0.17663     5   %  0.6669
      39      37.00335     14.49265         51.49600   0.18587     6   %  0.8678
      46      33.82251     17.67319         51.49570   0.18558     7   %  1.0439
      54      30.92286     20.57115         51.49402   0.18389     8   %  1.2464
      62      28.89539     22.59921         51.49460   0.18447     9   %  1.4273
      70      27.29188     24.20484         51.49672   0.18659    10   %  1.5985
      77      25.97845     25.51803         51.49649   0.18636    11   %  1.7601
      84      24.89257     26.60278         51.49535   0.18523    12   %  1.9142
      92      23.98465     27.51268         51.49733   0.18720    13   %  2.0647
     101      23.31962     28.25471         51.57433   0.26421    14   %  2.1943
     109      22.80216     28.97331         51.77547   0.46534    15   %  2.3068
     118      22.39016     29.63003         52.02019   0.71007    16   %  2.4131
     126      22.04334     30.26225         52.30560   0.99547    17   %  2.5153
     135      21.74799     30.88084         52.62883   1.31870    18   %  2.6073
     144      21.49279     31.48400         52.97679   1.66666    19   %  2.6983
     152      21.26879     32.07696         53.34575   2.03563    20   %  2.7890
     161      21.07419     32.66538         53.73957   2.42944    21   %  2.8682
     170      20.89585     33.24401         54.13986   2.82974    22   %  2.9542
     180      20.74051     33.81907         54.55958   3.24945    23   %  3.0289
     189      20.59956     34.39011         54.98967   3.67955    24   %  3.1065
     198      20.47182     34.96161         55.43343   4.12330    25   %  3.1816
     207      20.35981     35.53181         55.89162   4.58149    26   %  3.2496
     217      20.25387     36.10195         56.35583   5.04570    27   %  3.3210
     226      20.16803     36.62044         56.78847   5.47835    28   %  3.3819
     236      20.06930     37.23437         57.30367   5.99354    29   %  3.4567
     245      19.99031     37.79893         57.78925   6.47912    30   %  3.5199
     255      19.91439     38.36271         58.27709   6.96697    31   %  3.5847
     265      19.84272     38.92559         58.76831   7.45818    32   %  3.6490
     274      19.78559     39.44711         59.23269   7.92257    33   %  3.7036
     284      19.71696     40.05019         59.76715   8.45702    34   %  3.7708
     294      19.66208     40.61125         60.27333   8.96321    35   %  3.8289
     303      19.60822     41.12452         60.73274   9.42261    36   %  3.8847
     313      19.55550     41.70269         61.25819   9.94806    37   %  3.9439
     323      19.50558     42.27464         61.78022  10.47010    38   %  4.0019
     333      19.45809     42.85460         62.31270  11.00257    39   %  4.0591
     342      19.42512     43.37331         62.79843  11.48830    40   %  4.1079
     352      19.38293     43.94978         63.33271  12.02258    41   %  4.1629
     362      19.34406     44.52405         63.86811  12.55799    42   %  4.2171
     372      19.30633     45.10164         64.40796  13.09784    43   %  4.2708
     381      19.26409     45.61752         64.88161  13.57149    44   %  4.3196
     391      19.22986     46.18845         65.41831  14.10818    45   %  4.3710
     401      19.19603     46.75884         65.95487  14.64474    46   %  4.4211
     411      19.16389     47.33537         66.49927  15.18914    47   %  4.4707
     421      19.13382     47.90689         67.04071  15.73059    48   %  4.5195
     431      19.10469     48.48184         67.58653  16.27641    49   %  4.5674
     441      19.07690     49.04922         68.12612  16.81599    50   %  4.6142
     451      19.05002     49.61660         68.66662  17.35650    51   %  4.6602
     461      19.02460     50.18816         69.21276  17.90263    52   %  4.7054
     471      18.99941     50.75768         69.75709  18.44696    53   %  4.7498
     480      18.98697     51.27745         70.26442  18.95429    54   %  4.7881
     490      18.96460     51.85505         70.81965  19.50952    55   %  4.8313
     500      18.94231     52.42675         71.36906  20.05894    56   %  4.8740
     510      18.92064     52.99652         71.91716  20.60704    57   %  4.9158
     521      18.88935     53.61832         72.50766  21.19754    58   %  4.9621
     531      18.86996     54.19031         73.06027  21.75014    59   %  5.0023
     541      18.85064     54.75508         73.60573  22.29560    60   %  5.0416
     551      18.83220     55.32341         74.15561  22.84548    61   %  5.0804
     561      18.81407     55.89359         74.70766  23.39753    62   %  5.1186
     571      18.79663     56.46446         75.26109  23.95096    63   %  5.1564
     581      18.77939     57.03811         75.81750  24.50738    64   %  5.1937
     591      18.76296     57.61789         76.38085  25.07072    65   %  5.2306
     601      18.74743     58.18685         76.93428  25.62415    66   %  5.2670
     611      18.73167     58.76450         77.49617  26.18605    67   %  5.3028
     621      18.71660     59.34931         78.06592  26.75579    68   %  5.3384
     632      18.71470     60.00102         78.71571  27.40559    69   %  5.3765
     642      18.70177     60.59716         79.29893  27.98881    70   %  5.4114
     652      18.68756     61.18835         79.87590  28.56578    71   %  5.4456
     662      18.67668     61.78374         80.46041  29.15029    72   %  5.4796
     672      18.66390     62.39506         81.05896  29.74884    73   %  5.5137
     682      18.64939     62.99631         81.64571  30.33558    74   %  5.5469
     692      18.63812     63.59289         82.23101  30.92088    75   %  5.5795
     703      18.60670     64.26590         82.87260  31.56247    76   %  5.6158
     713      18.59492     64.88079         83.47571  32.16558    77   %  5.6481
     723      18.58327     65.50192         84.08519  32.77506    78   %  5.6798
     733      18.57180     66.14561         84.71741  33.40729    79   %  5.7120
     743      18.56052     66.80734         85.36786  34.05773    80   %  5.7442
     753      18.54949     67.47006         86.01955  34.70943    81   %  5.7761
     763      18.53867     68.13491         86.67358  35.36345    82   %  5.8079
     773      18.52860     68.83978         87.36838  36.05825    83   %  5.8397
     783      18.51787     69.58048         88.09834  36.78822    84   %  5.8726
     793      18.50762     70.34497         88.85259  37.54247    85   %  5.9055
     803      18.49692     71.10382         89.60074  38.29062    86   %  5.9380
     813      18.48709     71.88544         90.37253  39.06240    87   %  5.9703
     823      18.47784     72.72515         91.20299  39.89286    88   %  6.0033
     833      18.46758     73.57451         92.04209  40.73196    89   %  6.0363
     843      18.45973     74.46895         92.92868  41.61856    90   %  6.0692
     853      18.44941     75.40001         93.84942  42.53929    91   %  6.1029
     862      18.49277     76.35606         94.84883  43.53870    92   %  6.1351
     872      18.49406     77.50451         95.99857  44.68844    93   %  6.1710
     881      18.42670     78.56306         96.98976  45.67963    94   %  6.2031
     891      18.41982     79.92723         98.34705  47.03693    95   %  6.2408
     900      18.47401     81.26653         99.74054  48.43042    96   %  6.2764
     909      18.40761     82.62718        101.03480  49.72467    97   %  6.3101
     917      18.39964     83.99715        102.39679  51.08666    98   %  6.3421
     926      18.36643     85.27326        103.63969  52.32956    99   %  6.3769
     935      18.39492     85.93171        104.32662  53.01650   100   %  6.3972
     944      18.35630     86.61675        104.97305  53.66292   101   %  6.4205
     953      18.40001     87.43658        105.83659  54.52646   102   %  6.4439
     962      18.35175     88.38325        106.73500  55.42487   103   %  6.4702
     971      18.42313     89.75664        108.17977  56.86964   104   %  6.5003
     980      18.35115     91.23512        109.58627  58.27614   105   %  6.5317
     989      18.31907     92.01342        110.33249  59.02236   106   %  6.5567
     998      18.35050     92.69992        111.05042  59.74029   107   %  6.5755
    1007      18.31065     93.40618        111.71683  60.40671   108   %  6.5970
    1017      18.30628     94.27144        112.57772  61.26760   109   %  6.6209
    1026      18.35506     95.20512        113.56018  62.25006   110   %  6.6435
    1035      18.30232     96.20356        114.50588  63.19575   111   %  6.6679
    1044      18.37410     97.50857        115.88267  64.57254   112   %  6.6940
    1053      18.30953     98.53371        116.84324  65.53311   113   %  6.7187
    1062      18.27494     99.19295        117.46789  66.15777   114   %  6.7373
    1072      18.27067     99.96607        118.23674  66.92661   115   %  6.7577
    1081      18.30998    100.72317        119.03315  67.72303   116   %  6.7759
    1090      18.26454    101.52606        119.79061  68.48048   117   %  6.7961
    1100      18.26311    102.56374        120.82684  69.51671   118   %  6.8190
    1109      18.32380    103.73938        122.06318  70.75305   119   %  6.8420
    1118      18.26252    104.97509        123.23761  71.92749   120   %  6.8655


 IRC CALCULATION COMPLETE 

 **********************
 *                    *
 * JOB ENDED NORMALLY *
 *                    *
 **********************



 TOTAL JOB TIME:             6.61 SECONDS

 == MOPAC DONE ==
