 *******************************************************************************
 ** Site#: 37037        For non-commercial use only           Version 21.158W **
 *******************************************************************************
 ** Cite this program as: MOPAC2016, Version: 21.158W, James J. P. Stewart,   **
 ** Stewart Computational Chemistry, web: HTTP://OpenMOPAC.net. Days left: 363**
 *******************************************************************************
 **                                                                           **
 **                                MOPAC2016                                  **
 **                                                                           **
 *******************************************************************************

                              PM7 CALCULATION RESULTS

 *******************************************************************************
 *  CALCULATION DONE:                                Wed Jun  9 10:25:57 2021  *
 *  SYMMETRY   - SYMMETRY CONDITIONS TO BE IMPOSED
 *  T=         - A TIME OF 172800.0 SECONDS REQUESTED
 *  DUMP=N     - RESTART FILE WRITTEN EVERY 7200.0 SECONDS REQUESTED
 *******************************************************************************



                    PARAMETER DEPENDENCE DATA

        REFERENCE ATOM      FUNCTION NO.    DEPENDENT ATOM(S)
            2                  1               5

             DESCRIPTIONS OF THE FUNCTIONS USED
   1      BOND LENGTH    IS SET EQUAL TO THE REFERENCE BOND LENGTH   
 
  symmetry
 Using SYMMETRY to optimize the transition state in an almost narcissistic reaction

  ATOM    CHEMICAL      BOND LENGTH      BOND ANGLE     TWIST ANGLE 
 NUMBER    SYMBOL       (ANGSTROMS)      (DEGREES)       (DEGREES) 
   (I)                     NA:I           NB:NA:I       NC:NB:NA:I       NA    NB    NC 
     1       C          0.00000000       0.0000000       0.0000000        0     0     0
     2       C          1.90291749  *    0.0000000       0.0000000        1     0     0
     3       C          1.40297703  *  101.3888344  *    0.0000000  *     1     2     0
     4       C          1.40302699  *  120.2864665  *   69.6330549  *     3     1     2
     5       C          1.90291749     101.4122403  *  -69.2500434  *     4     3     1
     6       C          1.08641790  *  119.1868362  * -179.5161647  *     4     3     1
     7       H          1.08636952  *  119.2200583  *  -97.5068590  *     3     1     2
     8       H          1.08792235  *  119.6861951  *   36.8385283  *     4     3     1
     9       H          1.09000000  *  109.4712205  *   59.9999997  *     6     4     3
    10       H          1.09000000  *  109.4712208  *  -60.0000003  *     6     4     3
    11       H          1.09000000  *  109.4712210  *  180.0000000  *     6     4     3
    12       H          1.08822571  *   98.0833545  *  122.4815094  *     1     2     3
    13       H          1.08618700  *  101.4502654  * -123.3942679  *     1     2     3
    14       C          1.40303119  *  101.1783119  *  -55.9144126  *     2     1     3
    15       H          1.08634478  *  119.2194046  *  -97.5874747  *    14     2     1
    16       H          1.08820539  *   97.9745026  *  -67.2269596  *     5     4     3
    17       H          1.08626673  *  101.5161067  *  178.6289492  *     5     4     3
    18       H          1.08618484  *  101.5012500  * -179.2065122  *     2     1     3
    19       H          1.08799876  *   98.1490859  *   66.6054589  *     2     1     3
 


          CARTESIAN COORDINATES 

    NO.       ATOM           X           Y           Z

     1         C          0.0000      0.0000      0.0000
     2         C          1.9029      0.0000      0.0000
     3         C         -0.2770      1.3754      0.0000
     4         C         -0.0034      2.1523     -1.1358
     5         C          1.8995      2.1471     -1.1460
     6         C         -0.2176      3.2171     -1.1135
     7         H         -0.5032      1.8708      0.9400
     8         H         -0.1600      1.7316     -2.1268
     9         H          0.3598      3.6873     -0.3175
    10         H         -1.2811      3.3700     -0.9298
    11         H          0.0535      3.6624     -2.0707
    12         H         -0.1530     -0.5786     -0.9089
    13         H         -0.2156     -0.5859      0.8888
    14         C          2.1749      0.7714     -1.1399
    15         H          2.4005      0.2710     -2.0774
    16         H          2.0569      2.7304     -0.2409
    17         H          2.1131      2.7273     -2.0392
    18         H          2.1195     -1.0643     -0.0147
    19         H          2.0571      0.4276      0.9885

 General Reference for PM7:
 "Optimization of Parameters for Semiempirical Methods VI: More Modifications to the 
 NDDO Approximations and Re-optimization of Parameters", J. J. P. Stewart, J. Mol. Mod., 1:32, 19 (2013)
 https://link.springer.com/article/10.1007/s00894-012-1667-x

           Empirical Formula: C7 H12  =    19 atoms



      MOLECULAR POINT GROUP   :   C1  


      RHF CALCULATION, NO. OF DOUBLY OCCUPIED LEVELS = 20


          Geometry optimization using EF

          DIAGONAL MATRIX USED AS START HESSIAN

 CYCLE:     1 TIME:   0.016 TIME LEFT:  2.00D  GRAD.:  1251.614 HEAT:  232.6552
 CYCLE:     2 TIME:   0.000 TIME LEFT:  2.00D  GRAD.:   400.397 HEAT:  80.60533
 CYCLE:     3 TIME:   0.016 TIME LEFT:  2.00D  GRAD.:   523.171 HEAT:  71.37079
 CYCLE:     4 TIME:   0.000 TIME LEFT:  2.00D  GRAD.:   150.491 HEAT:  50.99330
 CYCLE:     5 TIME:   0.016 TIME LEFT:  2.00D  GRAD.:   183.678 HEAT:  45.37037
 CYCLE:     6 TIME:   0.016 TIME LEFT:  2.00D  GRAD.:    44.822 HEAT:  44.30912
 CYCLE:     7 TIME:   0.000 TIME LEFT:  2.00D  GRAD.:    77.462 HEAT:  44.05701
 CYCLE:     8 TIME:   0.016 TIME LEFT:  2.00D  GRAD.:    35.386 HEAT:  43.90898
 CYCLE:     9 TIME:   0.000 TIME LEFT:  2.00D  GRAD.:     8.899 HEAT:  43.84400
 CYCLE:    10 TIME:   0.000 TIME LEFT:  2.00D  GRAD.:     6.409 HEAT:  43.82531
 CYCLE:    11 TIME:   0.016 TIME LEFT:  2.00D  GRAD.:     3.594 HEAT:  43.81431
 CYCLE:    12 TIME:   0.000 TIME LEFT:  2.00D  GRAD.:     5.313 HEAT:  43.79687
 CYCLE:    13 TIME:   0.000 TIME LEFT:  2.00D  GRAD.:     2.654 HEAT:  43.78916
 CYCLE:    14 TIME:   0.016 TIME LEFT:  2.00D  GRAD.:     6.851 HEAT:  43.77303
 CYCLE:    15 TIME:   0.000 TIME LEFT:  2.00D  GRAD.:     3.593 HEAT:  43.76271
 CYCLE:    16 TIME:   0.000 TIME LEFT:  2.00D  GRAD.:     4.014 HEAT:  43.74771
 CYCLE:    17 TIME:   0.016 TIME LEFT:  2.00D  GRAD.:     3.212 HEAT:  43.73881
 CYCLE:    18 TIME:   0.000 TIME LEFT:  2.00D  GRAD.:     3.849 HEAT:  43.72685
 CYCLE:    19 TIME:   0.016 TIME LEFT:  2.00D  GRAD.:     1.902 HEAT:  43.71956
 CYCLE:    20 TIME:   0.000 TIME LEFT:  2.00D  GRAD.:     1.826 HEAT:  43.71817
 CYCLE:    21 TIME:   0.000 TIME LEFT:  2.00D  GRAD.:     1.507 HEAT:  43.71093
 CYCLE:    22 TIME:   0.031 TIME LEFT:  2.00D  GRAD.:     4.751 HEAT:  43.71450
 CYCLE:    23 TIME:   0.000 TIME LEFT:  2.00D  GRAD.:     3.572 HEAT:  43.69574
 CYCLE:    24 TIME:   0.016 TIME LEFT:  2.00D  GRAD.:     3.965 HEAT:  43.68921
 CYCLE:    25 TIME:   0.000 TIME LEFT:  2.00D  GRAD.:     6.257 HEAT:  43.69128
 CYCLE:    26 TIME:   0.000 TIME LEFT:  2.00D  GRAD.:     1.384 HEAT:  43.68001
 CYCLE:    27 TIME:   0.016 TIME LEFT:  2.00D  GRAD.:     1.761 HEAT:  43.67403
 CYCLE:    28 TIME:   0.000 TIME LEFT:  2.00D  GRAD.:     0.805 HEAT:  43.67179

     GRADIENT =  0.80453 IS LESS THAN CUTOFF =  1.00000



 -------------------------------------------------------------------------------
 symmetry
 Using SYMMETRY to optimize the transition state in an almost narcissistic reaction



     GEOMETRY OPTIMISED USING EIGENVECTOR FOLLOWING (EF).     
     SCF FIELD WAS ACHIEVED                                   


                              PM7 CALCULATION
                                                       MOPAC2016 (Version: 21.158W)
                                                       Wed Jun  9 10:25:57 2021
                                                       No. of days remaining = 363




          FINAL HEAT OF FORMATION =         43.67179 KCAL/MOL =     182.72275 KJ/MOL


          TOTAL ENERGY            =      -1019.69957 EV
          ELECTRONIC ENERGY       =      -5031.63216 EV  POINT GROUP:     C1  
          CORE-CORE REPULSION     =       4011.93260 EV
          COSMO AREA              =        149.86 SQUARE ANGSTROMS
          COSMO VOLUME            =        148.73 CUBIC ANGSTROMS

          GRADIENT NORM           =          0.80453 = 0.18457 PER ATOM
          IONIZATION POTENTIAL    =          8.291591 EV
          HOMO LUMO ENERGIES (EV) =         -8.292  0.362
          NO. OF FILLED LEVELS    =         20
          MOLECULAR WEIGHT        =         96.1718

          MOLECULAR DIMENSIONS (Angstroms)

            Atom       Atom       Distance
            H    18    H    10     6.12615
            H    17    H    13     4.65694
            H    12    H    16     2.86609


          SCF CALCULATIONS        =         39
 
          WALL-CLOCK TIME         =          0.234 SECONDS
          COMPUTATION TIME        =          0.891 SECONDS




  ATOM    CHEMICAL      BOND LENGTH      BOND ANGLE     TWIST ANGLE 
 NUMBER    SYMBOL       (ANGSTROMS)      (DEGREES)       (DEGREES) 
   (I)                     NA:I           NB:NA:I       NC:NB:NA:I       NA    NB    NC 
     1       C          0.00000000       0.0000000       0.0000000        0     0     0
     2       C          1.92951346  *    0.0000000       0.0000000        1     0     0
     3       C          1.40060417  *  101.5944935  *   -0.0000000  *     1     2     0
     4       C          1.40504384  *  120.5632767  *   70.3517954  *     3     1     2
     5       C          1.92951346     100.3316782  *  -69.6112072  *     4     3     1
     6       C          1.50610736  *  118.4947915  *  177.9383562  *     4     3     1
     7       H          1.08636484  *  119.1697354  *  -97.6837160  *     3     1     2
     8       H          1.09665223  *  118.5692412  *   33.4107400  *     4     3     1
     9       H          1.09720819  *  112.2569151  *   46.8940832  *     6     4     3
    10       H          1.09949390  *  110.6017168  *  -72.6112336  *     6     4     3
    11       H          1.09664864  *  112.0630778  *  167.8421509  *     6     4     3
    12       H          1.08676170  *   97.4467933  *  122.7070294  *     1     2     3
    13       H          1.08541904  *  100.5703082  * -123.2394795  *     1     2     3
    14       C          1.40086568  *  100.4798788  *  -55.7283130  *     2     1     3
    15       H          1.08687564  *  119.2129725  *  -97.9753225  *    14     2     1
    16       H          1.08698665  *   97.4011436  *  -67.0095951  *     5     4     3
    17       H          1.08496598  *  100.7153168  *  179.0030843  *     5     4     3
    18       H          1.08477542  *  101.3211565  * -179.0855077  *     2     1     3
    19       H          1.08681102  *   97.4633972  *   66.6457810  *     2     1     3

                             CARTESIAN COORDINATES

   1    C        0.000000000     0.000000000     0.000000000
   2    C        1.929513458     0.000000000     0.000000000
   3    C       -0.281498717     1.372024244     0.000000000
   4    C       -0.026591611     2.153656187    -1.139395479
   5    C        1.902912894     2.147857516    -1.138434110
   6    C       -0.390642021     3.614689174    -1.104620841
   7    H       -0.512161105     1.865221340     0.940074499
   8    H       -0.146919334     1.694509926    -2.128006655
   9    H       -0.050949331     4.105823038    -0.184152367
  10    H       -1.481473813     3.742895786    -1.154978514
  11    H        0.039971956     4.166716494    -1.948703581
  12    H       -0.140850238    -0.582271822    -0.906736858
  13    H       -0.199111384    -0.584865060     0.892424795
  14    C        2.184317216     0.775693374    -1.138331888
  15    H        2.410226908     0.279589574    -2.078621460
  16    H        2.044222355     2.727180253    -0.229612463
  17    H        2.106849118     2.735274493    -2.027536175
  18    H        2.142463793    -1.063532632    -0.016976381
  19    H        2.070682376     0.427177640     0.989317335


           Empirical Formula: C7 H12  =    19 atoms



      MOLECULAR POINT GROUP   :   C1  


                  EIGENVALUES  
 -29.75485 -26.78192 -25.55854 -23.21972 -20.84984 -19.12031 -19.05877 -16.19182
 -15.48937 -15.05281 -14.56362 -14.09564 -12.90954 -12.79985 -12.62672 -12.24693
 -12.09322 -11.56489  -9.64954  -8.29159   0.36234   1.42172   2.97201   4.39001
   5.16049   5.25456   5.43548   5.60262   5.70046   5.76345   6.18002   6.21596
   6.23049   6.26710   6.43481   6.52995   6.68859   6.72450   6.73827   6.92176


              NET ATOMIC CHARGES AND DIPOLE CONTRIBUTIONS

  ATOM NO.   TYPE          CHARGE      No. of ELECS.   s-Pop       p-Pop       
    1          C          -0.244064        4.2441     1.09357     3.15049
    2          C          -0.255597        4.2556     1.09408     3.16152
    3          C          -0.232017        4.2320     1.07948     3.15254
    4          C          -0.058258        4.0583     1.09016     2.96810
    5          C          -0.267264        4.2673     1.09524     3.17202
    6          C          -0.458843        4.4588     1.05210     3.40674
    7          H           0.144091        0.8559     0.85591
    8          H           0.139855        0.8601     0.86014
    9          H           0.150842        0.8492     0.84916
   10          H           0.154148        0.8459     0.84585
   11          H           0.147879        0.8521     0.85212
   12          H           0.140241        0.8598     0.85976
   13          H           0.135687        0.8643     0.86431
   14          C          -0.192404        4.1924     1.07837     3.11403
   15          H           0.139153        0.8608     0.86085
   16          H           0.143588        0.8564     0.85641
   17          H           0.135640        0.8644     0.86436
   18          H           0.134930        0.8651     0.86507
   19          H           0.142393        0.8576     0.85761
 DIPOLE           X         Y         Z       TOTAL
 POINT-CHG.    -0.233     0.242    -0.117     0.356
 HYBRID         0.032     0.087     0.052     0.106
 SUM           -0.202     0.329    -0.065     0.391


          ATOMIC ORBITAL ELECTRON POPULATIONS

     Atom    s        px        py        pz   
    1  C   1.09357   0.97131   1.03874   1.14044
    2  C   1.09408   0.98033   1.10404   1.07715
    3  C   1.07948   1.07354   1.00770   1.07129
    4  C   1.09016   0.93056   0.97674   1.06079
    5  C   1.09524   0.98853   1.03939   1.14410
    6  C   1.05210   1.16964   1.05695   1.18015
    7  H   0.85591
    8  H   0.86014
    9  H   0.84916
   10  H   0.84585
   11  H   0.85212
   12  H   0.85976
   13  H   0.86431
   14  C   1.07837   1.04542   1.00808   1.06053
   15  H   0.86085
   16  H   0.85641
   17  H   0.86436
   18  H   0.86507
   19  H   0.85761
 *******************************************************************************
 ** Site#: 37037        For non-commercial use only           Version 21.158W **
 *******************************************************************************
 ** Cite this program as: MOPAC2016, Version: 21.158W, James J. P. Stewart,   **
 ** Stewart Computational Chemistry, web: HTTP://OpenMOPAC.net. Days left: 363**
 *******************************************************************************
 **                                                                           **
 **                                MOPAC2016                                  **
 **                                                                           **
 *******************************************************************************

                              PM7 CALCULATION RESULTS

 *******************************************************************************
 *  CALCULATION DONE:                                Wed Jun  9 10:25:57 2021  *
 *  OPT        - OPTIMIZE COORDINATES OF ALL ATOMS
 *  OLDGEO     - PREVIOUS GEOMETRY TO BE USED
 *  TS         - USE EF ROUTINE FOR TS SEARCH
 *  T=         - A TIME OF 172800.0 SECONDS REQUESTED
 *  DUMP=N     - RESTART FILE WRITTEN EVERY 7200.0 SECONDS REQUESTED
 *******************************************************************************
 oldgeo opt ts
 Optimize transition state to convert from the symmetry-defined geometry to the transition-state geometry

  ATOM    CHEMICAL      BOND LENGTH      BOND ANGLE     TWIST ANGLE 
 NUMBER    SYMBOL       (ANGSTROMS)      (DEGREES)       (DEGREES) 
   (I)                     NA:I           NB:NA:I       NC:NB:NA:I       NA    NB    NC 
     1       C          0.00000000       0.0000000       0.0000000        0     0     0
     2       C          1.92951346  *    0.0000000       0.0000000        1     0     0
     3       C          1.40060417  *  101.5944935  *   -0.0000000  *     1     2     0
     4       C          1.40504384  *  120.5632767  *   70.3517954  *     3     1     2
     5       C          1.92951346  *  100.3316782  *  -69.6112072  *     4     3     1
     6       C          1.50610736  *  118.4947915  *  177.9383562  *     4     3     1
     7       H          1.08636484  *  119.1697354  *  -97.6837160  *     3     1     2
     8       H          1.09665223  *  118.5692412  *   33.4107400  *     4     3     1
     9       H          1.09720819  *  112.2569151  *   46.8940832  *     6     4     3
    10       H          1.09949390  *  110.6017168  *  -72.6112336  *     6     4     3
    11       H          1.09664864  *  112.0630778  *  167.8421509  *     6     4     3
    12       H          1.08676170  *   97.4467933  *  122.7070294  *     1     2     3
    13       H          1.08541904  *  100.5703082  * -123.2394795  *     1     2     3
    14       C          1.40086568  *  100.4798788  *  -55.7283130  *     2     1     3
    15       H          1.08687564  *  119.2129725  *  -97.9753225  *    14     2     1
    16       H          1.08698665  *   97.4011436  *  -67.0095951  *     5     4     3
    17       H          1.08496598  *  100.7153168  *  179.0030843  *     5     4     3
    18       H          1.08477542  *  101.3211565  * -179.0855077  *     2     1     3
    19       H          1.08681102  *   97.4633972  *   66.6457810  *     2     1     3
 


          CARTESIAN COORDINATES 

    NO.       ATOM           X           Y           Z

     1         C          0.0000      0.0000      0.0000
     2         C          1.9295      0.0000      0.0000
     3         C         -0.2815      1.3720      0.0000
     4         C         -0.0266      2.1537     -1.1394
     5         C          1.9029      2.1479     -1.1384
     6         C         -0.3906      3.6147     -1.1046
     7         H         -0.5122      1.8652      0.9401
     8         H         -0.1469      1.6945     -2.1280
     9         H         -0.0509      4.1058     -0.1842
    10         H         -1.4815      3.7429     -1.1550
    11         H          0.0400      4.1667     -1.9487
    12         H         -0.1409     -0.5823     -0.9067
    13         H         -0.1991     -0.5849      0.8924
    14         C          2.1843      0.7757     -1.1383
    15         H          2.4102      0.2796     -2.0786
    16         H          2.0442      2.7272     -0.2296
    17         H          2.1068      2.7353     -2.0275
    18         H          2.1425     -1.0635     -0.0170
    19         H          2.0707      0.4272      0.9893

 General Reference for PM7:
 "Optimization of Parameters for Semiempirical Methods VI: More Modifications to the 
 NDDO Approximations and Re-optimization of Parameters", J. J. P. Stewart, J. Mol. Mod., 1:32, 19 (2013)
 https://link.springer.com/article/10.1007/s00894-012-1667-x

           Empirical Formula: C7 H12  =    19 atoms



      MOLECULAR POINT GROUP   :   C1  


      RHF CALCULATION, NO. OF DOUBLY OCCUPIED LEVELS = 20


          Transition state refinement using EF

          HESSIAN CALCULATED NUMERICALLY

 CYCLE:     1 TIME:   0.234 TIME LEFT:  2.00D  GRAD.:     3.577 HEAT:  43.67179
 CYCLE:     2 TIME:   0.016 TIME LEFT:  2.00D  GRAD.:     0.614 HEAT:  43.67978

     GRADIENT =  0.61412 IS LESS THAN CUTOFF =  1.00000



 -------------------------------------------------------------------------------
 opt ts
 Optimize transition state to convert from the symmetry-defined geometry to the transition-state geometry



     GEOMETRY OPTIMISED USING EIGENVECTOR FOLLOWING (TS).     
     SCF FIELD WAS ACHIEVED                                   


                              PM7 CALCULATION
                                                       MOPAC2016 (Version: 21.158W)
                                                       Wed Jun  9 10:25:57 2021
                                                       No. of days remaining = 363




          FINAL HEAT OF FORMATION =         43.67978 KCAL/MOL =     182.75619 KJ/MOL


          TOTAL ENERGY            =      -1019.69922 EV
          ELECTRONIC ENERGY       =      -5031.91130 EV  POINT GROUP:     C1  
          CORE-CORE REPULSION     =       4012.21209 EV
          COSMO AREA              =        149.75 SQUARE ANGSTROMS
          COSMO VOLUME            =        148.60 CUBIC ANGSTROMS

          GRADIENT NORM           =          0.61412 = 0.14089 PER ATOM
          IONIZATION POTENTIAL    =          8.293126 EV
          HOMO LUMO ENERGIES (EV) =         -8.293  0.361
          NO. OF FILLED LEVELS    =         20
          MOLECULAR WEIGHT        =         96.1718

          MOLECULAR DIMENSIONS (Angstroms)

            Atom       Atom       Distance
            H    18    H    10     6.12488
            H    13    H    17     4.65743
            H    16    H    12     2.86529


          SCF CALCULATIONS        =         55
 
          WALL-CLOCK TIME         =          0.500 SECONDS
          COMPUTATION TIME        =          1.953 SECONDS




  ATOM    CHEMICAL      BOND LENGTH      BOND ANGLE     TWIST ANGLE 
 NUMBER    SYMBOL       (ANGSTROMS)      (DEGREES)       (DEGREES) 
   (I)                     NA:I           NB:NA:I       NC:NB:NA:I       NA    NB    NC 
     1       C          0.00000000       0.0000000       0.0000000        0     0     0
     2       C          1.93282855  *    0.0000000       0.0000000        1     0     0
     3       C          1.39871967  *  101.4906573  *    5.6005558  *     1     2     0
     4       C          1.40718214  *  120.5016794  *   70.3587712  *     3     1     2
     5       C          1.92554747  *  100.4861856  *  -69.5403452  *     4     3     1
     6       C          1.50604464  *  118.4425686  *  177.8009749  *     4     3     1
     7       H          1.08617233  *  119.2865358  *  -97.7270693  *     3     1     2
     8       H          1.09698793  *  118.3752891  *   33.7737095  *     4     3     1
     9       H          1.09722022  *  112.3059950  *   46.6373730  *     6     4     3
    10       H          1.09969765  *  110.5399100  *  -72.8628037  *     6     4     3
    11       H          1.09667449  *  112.0805381  *  167.6249561  *     6     4     3
    12       H          1.08686071  *   97.1587974  *  122.6873324  *     1     2     3
    13       H          1.08531353  *  100.5988887  * -123.3225221  *     1     2     3
    14       C          1.39874580  *  100.3508297  *  -56.0552817  *     2     1     3
    15       H          1.08680167  *  119.3348382  *  -97.6064051  *    14     2     1
    16       H          1.08698532  *   97.7284797  *  -67.1743332  *     5     4     3
    17       H          1.08502761  *  100.8526692  *  178.7590049  *     5     4     3
    18       H          1.08473772  *  101.1779087  * -179.4624391  *     2     1     3
    19       H          1.08676970  *   97.2275865  *   66.3255269  *     2     1     3

                             CARTESIAN COORDINATES

   1    C        0.000000000     0.000000000     0.000000000
   2    C        1.932828545     0.000000000     0.000000000
   3    C       -0.278636350     1.370685411     0.000000000
   4    C       -0.021546446     2.151789790    -1.141902931
   5    C        1.903974931     2.142821658    -1.146382485
   6    C       -0.385760202     3.612749066    -1.108484342
   7    H       -0.509303203     1.865993118     0.938740326
   8    H       -0.149670245     1.690354229    -2.128839624
   9    H       -0.051549502     4.104275422    -0.186206040
  10    H       -1.476636597     3.739831448    -1.164819802
  11    H        0.048844031     4.165321031    -1.950195890
  12    H       -0.135444310    -0.582388119    -0.907604051
  13    H       -0.199624199    -0.586046287     0.891406411
  14    C        2.184148190     0.768338733    -1.141483177
  15    H        2.403183376     0.269166975    -2.081690071
  16    H        2.054970473     2.724755380    -0.240793955
  17    H        2.108907734     2.725167620    -2.038660826
  18    H        2.143111586    -1.064113384    -0.009984026
  19    H        2.069556017     0.432913891     0.987400399


           Empirical Formula: C7 H12  =    19 atoms



      MOLECULAR POINT GROUP   :   C1  


                  EIGENVALUES  
 -29.75698 -26.78206 -25.56115 -23.21754 -20.84340 -19.12354 -19.05959 -16.19339
 -15.48817 -15.05318 -14.56116 -14.10196 -12.90676 -12.79254 -12.62629 -12.25635
 -12.08462 -11.56731  -9.65167  -8.29313   0.36150   1.42321   2.97302   4.39433
   5.15191   5.25145   5.43568   5.60828   5.70120   5.76505   6.17963   6.21544
   6.23143   6.26455   6.43401   6.52939   6.68890   6.72389   6.73863   6.92260


              NET ATOMIC CHARGES AND DIPOLE CONTRIBUTIONS

  ATOM NO.   TYPE          CHARGE      No. of ELECS.   s-Pop       p-Pop       
    1          C          -0.244523        4.2445     1.09377     3.15076
    2          C          -0.255800        4.2558     1.09422     3.16158
    3          C          -0.231466        4.2315     1.07960     3.15186
    4          C          -0.058312        4.0583     1.09003     2.96828
    5          C          -0.267211        4.2672     1.09511     3.17210
    6          C          -0.458848        4.4588     1.05211     3.40674
    7          H           0.144083        0.8559     0.85592
    8          H           0.139639        0.8604     0.86036
    9          H           0.150798        0.8492     0.84920
   10          H           0.154005        0.8460     0.84599
   11          H           0.147893        0.8521     0.85211
   12          H           0.140372        0.8596     0.85963
   13          H           0.135811        0.8642     0.86419
   14          C          -0.192244        4.1922     1.07841     3.11383
   15          H           0.139166        0.8608     0.86083
   16          H           0.143460        0.8565     0.85654
   17          H           0.135528        0.8645     0.86447
   18          H           0.135100        0.8649     0.86490
   19          H           0.142549        0.8575     0.85745
 DIPOLE           X         Y         Z       TOTAL
 POINT-CHG.    -0.236     0.237    -0.117     0.354
 HYBRID         0.030     0.086     0.052     0.105
 SUM           -0.205     0.323    -0.065     0.388


          ATOMIC ORBITAL ELECTRON POPULATIONS

     Atom    s        px        py        pz   
    1  C   1.09377   0.97135   1.03893   1.14048
    2  C   1.09422   0.98019   1.10465   1.07674
    3  C   1.07960   1.07293   1.00784   1.07109
    4  C   1.09003   0.93095   0.97684   1.06049
    5  C   1.09511   0.98879   1.03914   1.14417
    6  C   1.05211   1.16958   1.05697   1.18019
    7  H   0.85592
    8  H   0.86036
    9  H   0.84920
   10  H   0.84599
   11  H   0.85211
   12  H   0.85963
   13  H   0.86419
   14  C   1.07841   1.04537   1.00838   1.06008
   15  H   0.86083
   16  H   0.85654
   17  H   0.86447
   18  H   0.86490
   19  H   0.85745
 *******************************************************************************
 ** Site#: 37037        For non-commercial use only           Version 21.158W **
 *******************************************************************************
 ** Cite this program as: MOPAC2016, Version: 21.158W, James J. P. Stewart,   **
 ** Stewart Computational Chemistry, web: HTTP://OpenMOPAC.net. Days left: 363**
 *******************************************************************************
 **                                                                           **
 **                                MOPAC2016                                  **
 **                                                                           **
 *******************************************************************************

                              PM7 CALCULATION RESULTS

 *******************************************************************************
 *  CALCULATION DONE:                                Wed Jun  9 10:25:57 2021  *
 *  OLDGEO     - PREVIOUS GEOMETRY TO BE USED
 *  FORCE      - FORCE CALCULATION SPECIFIED
 *  T=         - A TIME OF 172800.0 SECONDS REQUESTED
 *  DUMP=N     - RESTART FILE WRITTEN EVERY 7200.0 SECONDS REQUESTED
 *  ISOTOPE    - SAVE THE FORCE MATRIX FOR USE LATER
 *******************************************************************************
oldgeo FORCE isotope
 Verify that there is one and only one imaginary vibration

  ATOM    CHEMICAL      BOND LENGTH      BOND ANGLE     TWIST ANGLE 
 NUMBER    SYMBOL       (ANGSTROMS)      (DEGREES)       (DEGREES) 
   (I)                     NA:I           NB:NA:I       NC:NB:NA:I       NA    NB    NC 
     1       C          0.00000000       0.0000000       0.0000000        0     0     0
     2       C          1.93282855  *    0.0000000       0.0000000        1     0     0
     3       C          1.39871967  *  101.4906573  *    5.6005558  *     1     2     0
     4       C          1.40718214  *  120.5016794  *   70.3587712  *     3     1     2
     5       C          1.92554747  *  100.4861856  *  -69.5403452  *     4     3     1
     6       C          1.50604464  *  118.4425686  *  177.8009749  *     4     3     1
     7       H          1.08617233  *  119.2865358  *  -97.7270693  *     3     1     2
     8       H          1.09698793  *  118.3752891  *   33.7737095  *     4     3     1
     9       H          1.09722022  *  112.3059950  *   46.6373730  *     6     4     3
    10       H          1.09969765  *  110.5399100  *  -72.8628037  *     6     4     3
    11       H          1.09667449  *  112.0805381  *  167.6249561  *     6     4     3
    12       H          1.08686071  *   97.1587974  *  122.6873324  *     1     2     3
    13       H          1.08531353  *  100.5988887  * -123.3225221  *     1     2     3
    14       C          1.39874580  *  100.3508297  *  -56.0552817  *     2     1     3
    15       H          1.08680167  *  119.3348382  *  -97.6064051  *    14     2     1
    16       H          1.08698532  *   97.7284797  *  -67.1743332  *     5     4     3
    17       H          1.08502761  *  100.8526692  *  178.7590049  *     5     4     3
    18       H          1.08473772  *  101.1779087  * -179.4624391  *     2     1     3
    19       H          1.08676970  *   97.2275865  *   66.3255269  *     2     1     3
 


          CARTESIAN COORDINATES 

    NO.       ATOM           X           Y           Z

     1         C          0.0000      0.0000      0.0000
     2         C          1.9328      0.0000      0.0000
     3         C         -0.2786      1.3707      0.0000
     4         C         -0.0215      2.1518     -1.1419
     5         C          1.9040      2.1428     -1.1464
     6         C         -0.3858      3.6127     -1.1085
     7         H         -0.5093      1.8660      0.9387
     8         H         -0.1497      1.6904     -2.1288
     9         H         -0.0515      4.1043     -0.1862
    10         H         -1.4766      3.7398     -1.1648
    11         H          0.0488      4.1653     -1.9502
    12         H         -0.1354     -0.5824     -0.9076
    13         H         -0.1996     -0.5860      0.8914
    14         C          2.1841      0.7683     -1.1415
    15         H          2.4032      0.2692     -2.0817
    16         H          2.0550      2.7248     -0.2408
    17         H          2.1089      2.7252     -2.0387
    18         H          2.1431     -1.0641     -0.0100
    19         H          2.0696      0.4329      0.9874

 General Reference for PM7:
 "Optimization of Parameters for Semiempirical Methods VI: More Modifications to the 
 NDDO Approximations and Re-optimization of Parameters", J. J. P. Stewart, J. Mol. Mod., 1:32, 19 (2013)
 https://link.springer.com/article/10.1007/s00894-012-1667-x

           Empirical Formula: C7 H12  =    19 atoms



      MOLECULAR POINT GROUP   :   C1  


      RHF CALCULATION, NO. OF DOUBLY OCCUPIED LEVELS = 20



          HEAT OF FORMATION =      43.679777 KCALS/MOLE


          CARTESIAN COORDINATE DERIVATIVES

   NUMBER  ATOM         X            Y            Z

     1       C     -0.231546     0.150499    -0.157623
     2       C      0.260491     0.039900    -0.016778
     3       C      0.054065    -0.167090     0.263125
     4       C      0.142169     0.074256    -0.166631
     5       C     -0.223915     0.128300    -0.042696
     6       C     -0.010476    -0.085811    -0.027627
     7       H      0.003199     0.008971    -0.001758
     8       H      0.008442     0.014980     0.001968
     9       H      0.018484     0.028790     0.031692
    10       H     -0.006421     0.000817     0.009717
    11       H     -0.007721    -0.000547    -0.023491
    12       H      0.010854     0.029681    -0.002226
    13       H      0.007020    -0.015803    -0.016879
    14       C     -0.023536    -0.243849     0.069834
    15       H     -0.021571     0.024412     0.043365
    16       H      0.017812    -0.015655     0.034221
    17       H      0.010332     0.009925    -0.005906
    18       H      0.000115    -0.007367     0.004373
    19       H     -0.007801     0.025590     0.003315
 


          GRADIENT NORM =   0.69035

          MOLECULAR WEIGHT =   96.17



          ROTATIONAL CONSTANTS IN CM(-1)

          A =    0.14153877   B =    0.07445282   C =    0.05442995



           PRINCIPAL MOMENTS OF INERTIA IN UNITS OF 10**(-40)*GRAM-CM**2

          A =      197.7746   B =      375.9800   C =      514.2899


          ORIENTATION OF MOLECULE IN FORCE CALCULATION

    NO.       ATOM         X         Y         Z

     1          C      -0.7533   -1.4589    0.6495
     2          C       1.1795   -1.4589    0.6495
     3          C      -1.0320   -0.0882    0.6495
     4          C      -0.7749    0.6929   -0.4924
     5          C       1.1506    0.6839   -0.4969
     6          C      -1.1391    2.1538   -0.4590
     7          H      -1.2627    0.4071    1.5882
     8          H      -0.9030    0.2314   -1.4794
     9          H      -0.8049    2.6454    0.4633
    10          H      -2.2300    2.2809   -0.5153
    11          H      -0.7045    2.7064   -1.3007
    12          H      -0.8888   -2.0413   -0.2581
    13          H      -0.9530   -2.0450    1.5409
    14          C       1.4308   -0.6906   -0.4920
    15          H       1.6498   -1.1897   -1.4322
    16          H       1.3016    1.2658    0.4087
    17          H       1.3556    1.2663   -1.3892
    18          H       1.3898   -2.5230    0.6395
    19          H       1.3162   -1.0260    1.6369


    FIRST DERIVATIVES WILL BE USED IN THE CALCULATION OF SECOND DERIVATIVES

          ESTIMATED TIME TO COMPLETE CALCULATION =        1.78 SECONDS

    FOR POINT-GROUP C1   THERE ARE   1 UNIQUE SYMMETRY FUNCTIONS.

 STEP:   1 TIME =     0.02 SECS, INTEGRAL =      0.02 TIME LEFT: 172799.98
 STEP:   2 TIME =     0.00 SECS, INTEGRAL =      0.02 TIME LEFT: 172799.98
 STEP:   3 TIME =     0.02 SECS, INTEGRAL =      0.03 TIME LEFT: 172799.97
 STEP:   4 TIME =     0.02 SECS, INTEGRAL =      0.05 TIME LEFT: 172799.95
 STEP:   5 TIME =     0.02 SECS, INTEGRAL =      0.06 TIME LEFT: 172799.94
 STEP:   6 TIME =     0.02 SECS, INTEGRAL =      0.08 TIME LEFT: 172799.92
 STEP:   7 TIME =     0.00 SECS, INTEGRAL =      0.08 TIME LEFT: 172799.92
 STEP:   8 TIME =     0.02 SECS, INTEGRAL =      0.09 TIME LEFT: 172799.91
 STEP:   9 TIME =     0.02 SECS, INTEGRAL =      0.11 TIME LEFT: 172799.89
 STEP:  10 TIME =     0.02 SECS, INTEGRAL =      0.12 TIME LEFT: 172799.88
 STEP:  11 TIME =     0.02 SECS, INTEGRAL =      0.14 TIME LEFT: 172799.86
 STEP:  12 TIME =     0.00 SECS, INTEGRAL =      0.14 TIME LEFT: 172799.86
 STEP:  13 TIME =     0.02 SECS, INTEGRAL =      0.16 TIME LEFT: 172799.84
 STEP:  14 TIME =     0.02 SECS, INTEGRAL =      0.17 TIME LEFT: 172799.83
 STEP:  15 TIME =     0.02 SECS, INTEGRAL =      0.19 TIME LEFT: 172799.81
 STEP:  16 TIME =     0.02 SECS, INTEGRAL =      0.20 TIME LEFT: 172799.80
 STEP:  17 TIME =     0.00 SECS, INTEGRAL =      0.20 TIME LEFT: 172799.80
 STEP:  18 TIME =     0.02 SECS, INTEGRAL =      0.22 TIME LEFT: 172799.78
 STEP:  19 TIME =     0.02 SECS, INTEGRAL =      0.23 TIME LEFT: 172799.77
 STEP:  20 TIME =     0.00 SECS, INTEGRAL =      0.23 TIME LEFT: 172799.77
 STEP:  21 TIME =     0.02 SECS, INTEGRAL =      0.25 TIME LEFT: 172799.75
 STEP:  22 TIME =     0.02 SECS, INTEGRAL =      0.27 TIME LEFT: 172799.73
 STEP:  23 TIME =     0.02 SECS, INTEGRAL =      0.28 TIME LEFT: 172799.72
 STEP:  24 TIME =     0.00 SECS, INTEGRAL =      0.28 TIME LEFT: 172799.72
 STEP:  25 TIME =     0.02 SECS, INTEGRAL =      0.30 TIME LEFT: 172799.70
 STEP:  26 TIME =     0.02 SECS, INTEGRAL =      0.31 TIME LEFT: 172799.69
 STEP:  27 TIME =     0.00 SECS, INTEGRAL =      0.31 TIME LEFT: 172799.69
 STEP:  28 TIME =     0.02 SECS, INTEGRAL =      0.33 TIME LEFT: 172799.67
 STEP:  29 TIME =     0.02 SECS, INTEGRAL =      0.34 TIME LEFT: 172799.66
 STEP:  30 TIME =     0.00 SECS, INTEGRAL =      0.34 TIME LEFT: 172799.66
 STEP:  31 TIME =     0.00 SECS, INTEGRAL =      0.34 TIME LEFT: 172799.66
 STEP:  32 TIME =     0.00 SECS, INTEGRAL =      0.34 TIME LEFT: 172799.66
 STEP:  33 TIME =     0.02 SECS, INTEGRAL =      0.36 TIME LEFT: 172799.64
 STEP:  34 TIME =     0.02 SECS, INTEGRAL =      0.38 TIME LEFT: 172799.62
 STEP:  35 TIME =     0.02 SECS, INTEGRAL =      0.39 TIME LEFT: 172799.61
 STEP:  36 TIME =     0.02 SECS, INTEGRAL =      0.41 TIME LEFT: 172799.59
 STEP:  37 TIME =     0.02 SECS, INTEGRAL =      0.42 TIME LEFT: 172799.58
 STEP:  38 TIME =     0.02 SECS, INTEGRAL =      0.44 TIME LEFT: 172799.56
 STEP:  39 TIME =     0.02 SECS, INTEGRAL =      0.45 TIME LEFT: 172799.55
 STEP:  40 TIME =     0.02 SECS, INTEGRAL =      0.47 TIME LEFT: 172799.53
 STEP:  41 TIME =     0.00 SECS, INTEGRAL =      0.47 TIME LEFT: 172799.53
 STEP:  42 TIME =     0.02 SECS, INTEGRAL =      0.48 TIME LEFT: 172799.52
 STEP:  43 TIME =     0.02 SECS, INTEGRAL =      0.50 TIME LEFT: 172799.50
 STEP:  44 TIME =     0.02 SECS, INTEGRAL =      0.52 TIME LEFT: 172799.48
 STEP:  45 TIME =     0.02 SECS, INTEGRAL =      0.53 TIME LEFT: 172799.47
 STEP:  46 TIME =     0.02 SECS, INTEGRAL =      0.55 TIME LEFT: 172799.45
 STEP:  47 TIME =     0.02 SECS, INTEGRAL =      0.56 TIME LEFT: 172799.44
 STEP:  48 TIME =     0.02 SECS, INTEGRAL =      0.58 TIME LEFT: 172799.42
 STEP:  49 TIME =     0.02 SECS, INTEGRAL =      0.59 TIME LEFT: 172799.41
 STEP:  50 TIME =     0.00 SECS, INTEGRAL =      0.59 TIME LEFT: 172799.41
 STEP:  51 TIME =     0.02 SECS, INTEGRAL =      0.61 TIME LEFT: 172799.39
 STEP:  52 TIME =     0.02 SECS, INTEGRAL =      0.62 TIME LEFT: 172799.38
 STEP:  53 TIME =     0.02 SECS, INTEGRAL =      0.64 TIME LEFT: 172799.36
 STEP:  54 TIME =     0.02 SECS, INTEGRAL =      0.66 TIME LEFT: 172799.34
 STEP:  55 TIME =     0.02 SECS, INTEGRAL =      0.67 TIME LEFT: 172799.33
 STEP:  56 TIME =     0.00 SECS, INTEGRAL =      0.67 TIME LEFT: 172799.33
 STEP:  57 TIME =     0.00 SECS, INTEGRAL =      0.67 TIME LEFT: 172799.33

(To convert to Hartree/Bohr^2, multiply by (10^(-21) x N x a0^2)/(4.184 x 627.51) =  0.0642)


           FORCE MATRIX IN MILLIDYNES/ANGSTROM


                  C  1       C  2       C  3       C  4       C  5       C  6
 ------------------------------------------------------------------------------
     C    1  12.473782
     C    2   2.842594  12.523851
     C    3   6.208242   2.225345  14.662046
     C    4   2.370959   1.850509   5.868407  13.161336
     C    5   1.899931   2.396781   2.200628   2.800241  12.365459
     C    6   0.085262   0.095411   0.749942   3.541476   0.452894  11.540877
     H    7   0.773272   0.029004   3.468121   0.761185   0.019996   0.043125
     H    8   0.182822   0.148029   0.777778   3.363438   0.539242   0.670872
     H    9   0.007919   0.006155   0.022356   0.704585   0.006297   3.423711
     H   10   0.008407   0.011956   0.010536   0.706293   0.038830   3.389825
     H   11   0.007030   0.006096   0.050895   0.693773   0.007327   3.426421
     H   12   3.468308   0.524791   0.784760   0.186217   0.150125   0.009838
     H   13   3.489262   0.424498   0.763948   0.070399   0.085458   0.007519
     C   14   2.274300   6.237321   1.728817   2.205682   6.025588   0.105906
     H   15   0.021928   0.769454   0.029148   0.025535   0.765707   0.008682
     H   16   0.151355   0.185968   0.150021   0.528026   3.468459   0.014915
     H   17   0.086696   0.070546   0.098148   0.437370   3.488874   0.011078
     H   18   0.415279   3.492570   0.093847   0.083027   0.071695   0.006535
     H   19   0.524232   3.472530   0.150563   0.147527   0.187889   0.009647


                  H  7       H  8       H  9       H 10       H 11       H 12
 ------------------------------------------------------------------------------
     H    7   4.400404
     H    8   0.068646   4.322316
     H    9   0.017151   0.043736   4.220625
     H   10   0.010062   0.013847   0.463731   4.194793
     H   11   0.003192   0.018400   0.463763   0.464814   4.222103
     H   12   0.073476   0.021867   0.001303   0.002054   0.001011   4.278082
     H   13   0.037166   0.008363   0.001470   0.001405   0.001749   0.452514
     C   14   0.030674   0.151911   0.007533   0.014235   0.006442   0.152219
     H   15   0.007184   0.004567   0.001841   0.001855   0.001717   0.004784
     H   16   0.004828   0.005190   0.017152   0.002812   0.007059   0.012622
     H   17   0.002878   0.017993   0.005373   0.002219   0.016883   0.008792
     H   18   0.003450   0.008601   0.001262   0.000970   0.001263   0.017320
     H   19   0.004710   0.012404   0.002146   0.001421   0.001249   0.005367


                  H 13       C 14       H 15       H 16       H 17       H 18
 ------------------------------------------------------------------------------
     H   13   4.291078
     C   14   0.097476  14.785804
     H   15   0.003262   3.462372   4.391272
     H   16   0.008784   0.785489   0.071940   4.281457
     H   17   0.004017   0.760481   0.035057   0.452407   4.293310
     H   18   0.016455   0.758460   0.036804   0.008478   0.007943   4.293331
     H   19   0.018309   0.783640   0.075612   0.022582   0.008547   0.452378


                  H 19
 ------------------
     H   19   4.281080


          HEAT OF FORMATION =      43.679777 KCALS/MOLE

          ZERO POINT ENERGY      99.645 KCAL/MOL

         NOTE: SYSTEM IS NOT A GROUND STATE, THEREFORE ZERO POINT
         ENERGY IS NOT MEANINGFULL. ZERO POINT ENERGY PRINTED
         DOES NOT INCLUDE THE  1 IMAGINARY FREQUENCIES


           NORMAL COORDINATE ANALYSIS (Total motion = 1 Angstrom)


   Root No.       1         2         3         4         5         6         7         8

                 1 A       2 A       3 A       4 A       5 A       6 A       7 A       8 A   

                -908.8     135.7     143.4     271.5     311.8     339.5     366.5     385.2
  
           1    0.1228   -0.0029   -0.0028    0.0057   -0.0079    0.0266    0.1049   -0.0055
           2   -0.0224    0.0104   -0.0013   -0.0200   -0.0102    0.0167   -0.0049    0.0027
           3   -0.0011    0.0236   -0.0067    0.0204   -0.0433   -0.0163   -0.0173    0.0111
           4   -0.1213   -0.0008   -0.0038   -0.0006   -0.0098    0.0679   -0.0561   -0.0189
           5   -0.0120   -0.0330   -0.0036    0.0212    0.0075   -0.0318   -0.0159   -0.0248
           6    0.0199   -0.0393   -0.0004   -0.0110    0.0053    0.0117    0.0262   -0.0102
           7    0.0001    0.0104   -0.0024   -0.0300    0.0201   -0.0197    0.0605    0.0217
           8    0.0338    0.0133   -0.0011   -0.0251   -0.0028    0.0079   -0.0005    0.0079
           9   -0.0192    0.0178   -0.0044   -0.0005    0.0493   -0.0065   -0.0200   -0.0024
          10   -0.1180    0.0069    0.0022   -0.0178   -0.0082   -0.0649    0.0616   -0.0180
          11   -0.0125   -0.0034   -0.0012   -0.0266   -0.0021    0.0226    0.0183   -0.0076
          12    0.0211    0.0055   -0.0034    0.0007    0.0430   -0.0026   -0.0199   -0.0213
          13    0.1194    0.0055    0.0021   -0.0271   -0.0088   -0.0269   -0.1018   -0.0326
          14   -0.0239    0.0136    0.0044    0.0231    0.0039   -0.0346   -0.0020    0.0042
          15   -0.0016    0.0470    0.0141    0.0095   -0.0097    0.0228    0.0214   -0.0187
          16   -0.0043   -0.0136    0.0012    0.0702    0.0093   -0.0012    0.0059    0.0069
          17    0.0018   -0.0084   -0.0015   -0.0049    0.0006    0.0411    0.0140   -0.0000
          18   -0.0004   -0.0398   -0.0062   -0.0097   -0.0314   -0.0152   -0.0069    0.0099
          19   -0.0041    0.0235   -0.0052   -0.0521    0.0732   -0.0209    0.0459    0.0824
          20   -0.0164    0.0248   -0.0012   -0.0221   -0.0314   -0.0056   -0.0110    0.0278
          21    0.0054    0.0144   -0.0053   -0.0075    0.0729    0.0010   -0.0217    0.0034
          22    0.0719    0.0224    0.0077   -0.0249   -0.0344   -0.0589   -0.0177   -0.0516
          23    0.0011   -0.0272   -0.0037   -0.0273   -0.0337    0.0288    0.0278   -0.0064
          24   -0.0021    0.0138   -0.0028    0.0022    0.0569   -0.0046   -0.0213   -0.0150
          25    0.0068   -0.0448    0.2382    0.1012    0.0010    0.0240   -0.0138    0.0208
          26   -0.0021    0.0202    0.0614   -0.0220    0.0471    0.0355    0.0175   -0.0290
          27   -0.0018   -0.0439   -0.1255   -0.0112   -0.0540   -0.0215   -0.0026    0.0210
          28   -0.0037   -0.0142   -0.0141    0.0810    0.0119    0.0064    0.0013    0.0100
          29    0.0399   -0.0261   -0.0105    0.0738    0.0122    0.0988   -0.0323    0.0247
          30   -0.0040   -0.0719    0.2721   -0.0162   -0.0577   -0.0188   -0.0058    0.0185
          31    0.0142   -0.0003   -0.2210    0.1137    0.0290    0.0293   -0.0157    0.0158
          32   -0.0176   -0.0235   -0.0562   -0.0400   -0.0513    0.0089    0.0372    0.0117
          33   -0.0023   -0.0431   -0.1566   -0.0115   -0.0569   -0.0218   -0.0018    0.0226
          34   -0.0698   -0.0346   -0.0006    0.0080   -0.0055    0.0580    0.0391   -0.0414
          35   -0.0017    0.0043    0.0012   -0.0412    0.0632    0.0243   -0.0036   -0.0071
          36    0.0063    0.0321   -0.0088    0.0336   -0.0918   -0.0248   -0.0159    0.0230
          37   -0.0081    0.0129   -0.0067    0.0249   -0.0212    0.0439    0.0390   -0.0024
          38    0.0113    0.0214   -0.0035   -0.0068   -0.0807    0.0026   -0.0004    0.0213
          39   -0.0014    0.0343   -0.0090    0.0340   -0.0943   -0.0236   -0.0221    0.0250
          40    0.0008   -0.0029    0.0034   -0.0165    0.0035    0.0095   -0.0720    0.0423
          41    0.0344    0.0115    0.0047    0.0279    0.0066   -0.0255   -0.0083    0.0182
          42   -0.0189   -0.0096    0.0064   -0.0111    0.0072    0.0086    0.0150    0.0299
          43    0.0003   -0.0124    0.0098   -0.0221    0.0218   -0.0019   -0.0835    0.1610
          44   -0.0146    0.0490    0.0114    0.0381    0.0019   -0.0165   -0.0034    0.0338
          45    0.0072   -0.0318    0.0044   -0.0172    0.0136    0.0004    0.0139    0.0470
          46   -0.0691   -0.0079   -0.0042   -0.0353    0.0049   -0.0506   -0.0279   -0.0640
          47   -0.0020   -0.0259   -0.0034    0.0090    0.0231   -0.0474   -0.0124    0.0459
          48    0.0079    0.0745    0.0203    0.0209   -0.0246    0.0343    0.0240   -0.0394
          49   -0.0098    0.0198    0.0066   -0.0309   -0.0292   -0.0406   -0.0353   -0.0276
          50    0.0102    0.0529    0.0131    0.0415   -0.0130   -0.0184   -0.0015   -0.0253
          51   -0.0024    0.0760    0.0209    0.0202   -0.0260    0.0321    0.0298   -0.0392
          52    0.0051   -0.0241   -0.0043    0.0192    0.0025    0.0579    0.0077   -0.0195
          53    0.0074   -0.0372   -0.0036    0.0251    0.0099   -0.0321   -0.0091   -0.0265
          54   -0.0070   -0.0920   -0.0076   -0.0156    0.0128    0.0042    0.0192   -0.0625
          55    0.0706    0.0293   -0.0073    0.0091   -0.0339    0.0570    0.0250   -0.0350
          56   -0.0064   -0.0801   -0.0112    0.0223    0.0110   -0.0374   -0.0175   -0.0790
          57   -0.0020   -0.0229    0.0035   -0.0125    0.0072    0.0131    0.0218    0.0159


   Root No.       9        10        11        12        13        14        15        16

                 9 A      10 A      11 A      12 A      13 A      14 A      15 A      16 A   

                 460.2     492.9     534.3     844.8     852.2     891.2     966.9     969.2
  
           1   -0.0289    0.0123    0.0153   -0.0035    0.0052    0.0022    0.0085    0.0082
           2   -0.0047    0.0198    0.0523   -0.0061    0.0081    0.0012    0.0005   -0.0078
           3   -0.0108   -0.0010   -0.0239    0.0199   -0.0183   -0.0096    0.0219    0.0199
           4    0.0120   -0.0266    0.0109    0.0064    0.0067    0.0026   -0.0015   -0.0093
           5    0.0222    0.0336   -0.0107   -0.0111   -0.0202    0.0156   -0.0028   -0.0029
           6    0.0119   -0.0156    0.0041    0.0018   -0.0066    0.0141   -0.0013   -0.0104
           7    0.0518   -0.0122   -0.0224    0.0200   -0.0221   -0.0230   -0.0415   -0.0110
           8    0.0061    0.0156    0.0399    0.0014    0.0066   -0.0080   -0.0049   -0.0130
           9   -0.0077    0.0139    0.0219    0.0101    0.0015    0.0004   -0.0113    0.0163
          10   -0.0335    0.0099    0.0002   -0.0035    0.0041    0.0075    0.0047    0.0035
          11   -0.0155   -0.0066   -0.0358   -0.0003    0.0010    0.0008   -0.0005   -0.0079
          12   -0.0359    0.0023   -0.0204   -0.0061    0.0055    0.0047   -0.0015   -0.0207
          13    0.0091   -0.0296   -0.0012    0.0076    0.0078    0.0002    0.0048    0.0074
          14   -0.0001   -0.0356    0.0059    0.0078    0.0064   -0.0017   -0.0009    0.0081
          15    0.0270    0.0215   -0.0020   -0.0222   -0.0014   -0.0240    0.0064    0.0086
          16    0.0026    0.0008    0.0125   -0.0034    0.0041    0.0038    0.0134   -0.0138
          17   -0.0120   -0.0095   -0.0495    0.0055   -0.0067    0.0020    0.0044    0.0243
          18    0.0077    0.0059    0.0160   -0.0007    0.0015    0.0031    0.0002   -0.0177
          19    0.2004   -0.0340   -0.0589   -0.0870    0.0618    0.0865    0.2098    0.0093
          20    0.0348    0.0168    0.0505    0.0007    0.0063   -0.0058    0.0421    0.0140
          21    0.0163    0.0056    0.0001   -0.0182    0.0214    0.0270    0.0305    0.0036
          22   -0.0437   -0.0052    0.0056   -0.0090    0.0177   -0.0313   -0.0109   -0.0419
          23   -0.0127   -0.0148   -0.0619   -0.0018   -0.0032    0.0094    0.0219   -0.0176
          24   -0.0293    0.0074   -0.0050   -0.0017    0.0045    0.0048   -0.0108   -0.0043
          25    0.0226   -0.0038    0.0233    0.0069   -0.0070   -0.0187   -0.0358    0.0303
          26   -0.0542   -0.0112   -0.0924   -0.0051    0.0028    0.0298    0.0321   -0.0746
          27    0.0247    0.0086    0.0387    0.0016    0.0003   -0.0068   -0.0011    0.0254
          28    0.0060   -0.0006    0.0121   -0.0002    0.0003   -0.0019   -0.0035   -0.0048
          29    0.0228   -0.0199   -0.0388    0.0217   -0.0249   -0.0330   -0.0843    0.0677
          30    0.0216    0.0069    0.0358    0.0033    0.0008   -0.0067   -0.0041    0.0309
          31    0.0135   -0.0043    0.0098    0.0044   -0.0042   -0.0097   -0.0354   -0.0081
          32    0.0078   -0.0014   -0.0130    0.0046   -0.0048   -0.0057    0.0309    0.0857
          33    0.0266    0.0092    0.0403    0.0027   -0.0012   -0.0090   -0.0033    0.0337
          34   -0.0436   -0.0020    0.0340    0.0909   -0.1095   -0.0349    0.1179    0.0066
          35   -0.0017    0.0344    0.1144    0.0359   -0.0261   -0.0086    0.0339    0.0724
          36   -0.0074   -0.0107   -0.0717   -0.0267    0.0278    0.0033   -0.0248   -0.0414
          37   -0.0109    0.0083   -0.0043   -0.1185    0.1465    0.0949   -0.1056    0.1167
          38    0.0013    0.0037   -0.0095   -0.0482    0.0443    0.0008   -0.0481   -0.1150
          39   -0.0054   -0.0115   -0.0720   -0.0400    0.0431    0.0134   -0.0421   -0.0338
          40   -0.0190    0.0445   -0.0132   -0.0313   -0.0299   -0.0027   -0.0088    0.0037
          41   -0.0025   -0.0248    0.0062    0.0007   -0.0016   -0.0004    0.0008   -0.0071
          42   -0.0086   -0.0435    0.0108   -0.0048    0.0051    0.0036   -0.0069    0.0050
          43   -0.0667    0.1582   -0.0592    0.1072    0.0867    0.0060    0.0558   -0.0116
          44   -0.0049   -0.0081    0.0021    0.0078    0.0204   -0.0318    0.0147    0.0132
          45   -0.0160   -0.0154   -0.0011    0.0245    0.0195    0.0214    0.0019   -0.0096
          46   -0.0259   -0.0553   -0.0022   -0.1023   -0.0043   -0.1091    0.0427    0.0486
          47   -0.0387   -0.1059    0.0194   -0.0339    0.0193   -0.0504    0.0070    0.0379
          48    0.0573    0.0777   -0.0115    0.0290   -0.0097    0.0350   -0.0075   -0.0222
          49    0.0156    0.0012   -0.0068    0.1465    0.0550    0.1425   -0.0526    0.0755
          50    0.0394    0.0431   -0.0063    0.0463   -0.0147    0.0474   -0.0082   -0.0379
          51    0.0584    0.0813   -0.0117    0.0420   -0.0044    0.0483   -0.0141   -0.0095
          52    0.0094   -0.0043   -0.0176    0.0863    0.1689   -0.1100    0.0458   -0.0605
          53    0.0245    0.0383   -0.0171    0.0061    0.0168   -0.0119    0.0058   -0.0115
          54    0.0508    0.0790   -0.0344    0.0016    0.0587   -0.0619   -0.0103    0.0379
          55   -0.0069   -0.0475    0.0403   -0.0336   -0.1239    0.0975    0.0145   -0.0251
          56    0.0590    0.1148   -0.0465   -0.0085    0.0402   -0.0535   -0.0064    0.0404
          57   -0.0022   -0.0424    0.0135    0.0053   -0.0081    0.0239   -0.0028   -0.0218


   Root No.      17        18        19        20        21        22        23        24

                17 A      18 A      19 A      20 A      21 A      22 A      23 A      24 A   

                 990.2     998.6    1012.5    1035.9    1050.4    1069.8    1114.1    1179.4
  
           1   -0.0005   -0.0043    0.0110    0.0006    0.0026    0.0030   -0.0035    0.0080
           2    0.0070   -0.0051    0.0139    0.0001   -0.0011   -0.0008    0.0064    0.0008
           3   -0.0091    0.0004   -0.0069   -0.0192   -0.0091    0.0036    0.0035    0.0166
           4    0.0073    0.0033   -0.0096    0.0014    0.0001    0.0032    0.0057    0.0065
           5    0.0011    0.0199    0.0051   -0.0053   -0.0061   -0.0454   -0.0023    0.0014
           6   -0.0023    0.0157   -0.0044    0.0002    0.0009    0.0082   -0.0057   -0.0019
           7    0.0060    0.0031   -0.0047    0.0026   -0.0143   -0.0060    0.0115    0.0040
           8   -0.0026   -0.0002   -0.0051    0.0014    0.0026   -0.0016   -0.0031   -0.0030
           9   -0.0065    0.0030   -0.0012    0.0126    0.0052   -0.0047    0.0025   -0.0179
          10   -0.0044    0.0011    0.0004   -0.0068    0.0116    0.0036   -0.0183   -0.0298
          11    0.0032    0.0001    0.0013    0.0014    0.0037   -0.0016    0.0038    0.0509
          12    0.0049   -0.0021    0.0007    0.0030    0.0137   -0.0017    0.0045    0.0189
          13    0.0039    0.0044    0.0049    0.0087   -0.0113    0.0014    0.0003   -0.0227
          14    0.0056   -0.0049    0.0064    0.0051   -0.0002    0.0318    0.0014    0.0018
          15    0.0188   -0.0048   -0.0046    0.0008   -0.0082   -0.0359   -0.0074   -0.0036
          16   -0.0084   -0.0047   -0.0167    0.0187   -0.0186   -0.0037    0.0137    0.0182
          17   -0.0121    0.0042   -0.0090    0.0074   -0.0011   -0.0010   -0.0020   -0.0473
          18    0.0064   -0.0116    0.0060   -0.0225   -0.0185    0.0050   -0.0017   -0.0158
          19    0.0042   -0.0191    0.0359   -0.0391    0.0812    0.0109    0.0093   -0.0017
          20   -0.0113   -0.0028   -0.0082   -0.0561   -0.0221    0.0132   -0.0059   -0.0489
          21   -0.0007   -0.0024    0.0121    0.0298    0.0426   -0.0083    0.0058    0.0105
          22    0.0191    0.0496   -0.1035   -0.1244    0.1539   -0.0189    0.1700    0.0132
          23    0.0068   -0.0117   -0.0094   -0.0605   -0.0353    0.0066    0.0196    0.0863
          24   -0.0013   -0.0024    0.0175    0.0467    0.0123   -0.0037   -0.0256   -0.0145
          25    0.0192    0.0216    0.0285   -0.0209    0.0602    0.0038   -0.0178    0.0111
          26    0.0025   -0.0562   -0.0058   -0.0666   -0.1153    0.0148    0.0094   -0.0782
          27   -0.0108    0.0170   -0.0113    0.0374    0.0284   -0.0082    0.0035    0.0160
          28    0.0038   -0.0007    0.0021   -0.0060    0.0021    0.0018    0.0013    0.0033
          29    0.0521    0.0289    0.0845   -0.1008    0.1142    0.0211   -0.0512   -0.0629
          30   -0.0091    0.0172   -0.0111    0.0354    0.0389   -0.0133    0.0021    0.0114
          31    0.0358   -0.0043    0.0458   -0.0707    0.0255    0.0129   -0.0233   -0.0161
          32   -0.0646    0.0477   -0.0722    0.1445    0.0414   -0.0300    0.0275    0.0220
          33   -0.0125    0.0217   -0.0117    0.0385    0.0359   -0.0093    0.0016    0.0106
          34    0.0403   -0.0423    0.1269    0.0503    0.0122   -0.0486    0.1325   -0.0779
          35   -0.0236    0.0147   -0.0526   -0.0895   -0.0497    0.0276   -0.0068    0.0575
          36    0.0064   -0.0069    0.0220    0.0408    0.0256   -0.0103   -0.0076   -0.0131
          37    0.0039    0.0465    0.0021   -0.0341   -0.0828   -0.0048    0.0936   -0.0408
          38    0.0359   -0.0265    0.0571    0.0835    0.0520   -0.0153   -0.0071   -0.0310
          39    0.0131   -0.0043    0.0259    0.0378    0.0125   -0.0090    0.0148   -0.0198
          40   -0.0323   -0.0197    0.0041   -0.0046    0.0077    0.0052   -0.0074    0.0082
          41   -0.0081   -0.0021   -0.0057   -0.0003    0.0021    0.0052   -0.0023    0.0021
          42   -0.0064   -0.0068    0.0036    0.0004   -0.0009    0.0091    0.0018    0.0030
          43    0.1784    0.1132   -0.0246    0.0276   -0.0319    0.0161   -0.0079   -0.0116
          44    0.0495   -0.0341   -0.0222    0.0108   -0.0021    0.0014   -0.0062    0.0080
          45    0.0169    0.0443    0.0051    0.0026   -0.0087    0.0148    0.0021   -0.0047
          46    0.0435    0.1128    0.1026    0.0077   -0.0458    0.0754   -0.0669    0.1314
          47    0.0659   -0.0792   -0.0424   -0.0006    0.0012   -0.1002   -0.0046   -0.0224
          48   -0.0363    0.0292    0.0139    0.0044   -0.0015    0.0509    0.0073   -0.0116
          49    0.0174   -0.1045    0.0491   -0.0116    0.0264   -0.1041   -0.0510    0.1353
          50   -0.0713    0.0538    0.0272    0.0138    0.0068    0.1911    0.0237   -0.0134
          51   -0.0355    0.0136    0.0230    0.0037    0.0044    0.0597   -0.0007    0.0215
          52   -0.1362    0.0204   -0.0179   -0.0382    0.0251   -0.0732   -0.1192   -0.0280
          53   -0.0245    0.0156    0.0002   -0.0112   -0.0002   -0.0499   -0.0246   -0.0047
          54    0.0378   -0.1065   -0.0325    0.0275    0.0205    0.1737    0.0142    0.0017
          55    0.1109    0.0073   -0.1224    0.0140    0.0384    0.0489   -0.1446   -0.0282
          56    0.0527   -0.0910   -0.0388    0.0165    0.0095    0.0799    0.0036    0.0070
          57   -0.0375    0.0528    0.0285   -0.0099   -0.0100   -0.0413    0.0125    0.0016


   Root No.      25        26        27        28        29        30        31        32

                25 A      26 A      27 A      28 A      29 A      30 A      31 A      32 A   

                1196.3    1199.4    1287.4    1293.3    1306.9    1312.2    1327.8    1335.2
  
           1   -0.0235   -0.0192   -0.0013    0.0002    0.0021   -0.0035    0.0054    0.0054
           2    0.0020   -0.0016    0.0004   -0.0017    0.0042   -0.0044   -0.0214    0.0005
           3    0.0075   -0.0091    0.0041   -0.0031   -0.0074   -0.0051   -0.0198   -0.0010
           4   -0.0193   -0.0227   -0.0002    0.0008   -0.0018   -0.0030    0.0053    0.0072
           5   -0.0053   -0.0039   -0.0004    0.0003   -0.0005    0.0045   -0.0013    0.0016
           6   -0.0019   -0.0039    0.0001    0.0001   -0.0042    0.0242    0.0009   -0.0236
           7    0.0055    0.0066    0.0020   -0.0000   -0.0019   -0.0008   -0.0023    0.0006
           8    0.0036    0.0047    0.0012   -0.0008   -0.0052    0.0032   -0.0004   -0.0032
           9   -0.0151    0.0136   -0.0120    0.0046    0.0301    0.0087    0.0133    0.0008
          10    0.0112   -0.0190   -0.0021   -0.0010    0.0052    0.0054   -0.0045    0.0044
          11    0.0339   -0.0109    0.0061   -0.0047   -0.0266   -0.0076    0.0085   -0.0060
          12    0.0139   -0.0102   -0.0005    0.0042   -0.0034    0.0026    0.0261    0.0038
          13    0.0125   -0.0176   -0.0026    0.0012    0.0049    0.0040   -0.0047    0.0055
          14   -0.0042    0.0000    0.0005   -0.0018    0.0058   -0.0204    0.0021   -0.0213
          15   -0.0004   -0.0047   -0.0002   -0.0024    0.0051   -0.0178    0.0025   -0.0105
          16   -0.0025    0.0069    0.0106   -0.0285    0.0019    0.0017    0.0055    0.0001
          17   -0.0303    0.0099    0.0019   -0.0042    0.0052    0.0027   -0.0108    0.0047
          18   -0.0102    0.0068   -0.0251   -0.0141   -0.0192   -0.0052   -0.0090   -0.0017
          19    0.0002   -0.0129    0.0016   -0.0024   -0.0132   -0.0052   -0.0077    0.0022
          20   -0.0077    0.0112   -0.0083    0.0327   -0.0392    0.0321    0.3777    0.0238
          21   -0.0065    0.0032   -0.0070   -0.0135    0.0432   -0.0086   -0.1877   -0.0127
          22   -0.0817    0.0892    0.0101   -0.0108   -0.0321   -0.0107   -0.0176   -0.0032
          23    0.0362   -0.0049   -0.1029    0.0613    0.3221    0.0839    0.0399    0.0162
          24    0.0167   -0.0228    0.0446   -0.0253   -0.1540   -0.0362    0.0130   -0.0051
          25    0.0267   -0.0184   -0.2570    0.1582   -0.0619   -0.0352   -0.0218   -0.0163
          26   -0.0665    0.0412    0.0606    0.1108   -0.0596   -0.0335   -0.0363   -0.0180
          27    0.0097   -0.0071    0.0539   -0.1315    0.0374    0.0268    0.0209    0.0155
          28    0.0035   -0.0016   -0.0088   -0.0370   -0.0003    0.0026    0.0048    0.0009
          29    0.0306   -0.0404    0.0301   -0.1572    0.0121    0.0233    0.0232    0.0131
          30    0.0115   -0.0118    0.3234    0.0848    0.0697    0.0172    0.0176    0.0033
          31    0.0139   -0.0134    0.1405    0.2436    0.0117   -0.0184   -0.0276   -0.0151
          32   -0.0080    0.0030   -0.0879    0.0807   -0.0364   -0.0197    0.0229   -0.0073
          33    0.0084   -0.0068    0.0000    0.1801   -0.0319   -0.0264    0.0001   -0.0150
          34    0.1152    0.1062   -0.0001    0.0037   -0.0011    0.0115    0.0085   -0.0069
          35    0.0182   -0.0382    0.0121   -0.0076   -0.0026   -0.0190   -0.1111    0.0051
          36   -0.0265   -0.0005   -0.0058    0.0011    0.0021    0.0046    0.0407   -0.0027
          37    0.1255    0.0709    0.0092   -0.0023   -0.0253    0.0185   -0.0058   -0.0265
          38   -0.0366    0.0106   -0.0145    0.0086    0.0539    0.0033   -0.0363    0.0136
          39    0.0089    0.0203   -0.0059    0.0043    0.0256    0.0066   -0.0280    0.0008
          40    0.0009    0.0103    0.0006   -0.0010    0.0006   -0.0004    0.0013   -0.0132
          41    0.0017    0.0029   -0.0001    0.0032   -0.0024   -0.0021    0.0019    0.0261
          42    0.0047    0.0094   -0.0005    0.0028   -0.0029    0.0033   -0.0061    0.0458
          43   -0.0074   -0.0100   -0.0001   -0.0011    0.0043   -0.0045    0.0023   -0.0138
          44   -0.0071   -0.0058   -0.0060    0.0296   -0.0832    0.3655   -0.0493    0.0069
          45    0.0065    0.0088    0.0026   -0.0121    0.0412   -0.1932    0.0221    0.0468
          46   -0.0995    0.1295    0.0142   -0.0022   -0.0148    0.0139    0.0045    0.0059
          47   -0.0026   -0.0264   -0.0009   -0.0278    0.0400   -0.0783    0.0270   -0.1770
          48    0.0184   -0.0096   -0.0017    0.0154   -0.0148    0.0197   -0.0154    0.0992
          49   -0.0854    0.0883    0.0070   -0.0039   -0.0216   -0.0016    0.0226   -0.0142
          50    0.0053    0.0063    0.0036   -0.0164    0.0231   -0.0167    0.0105   -0.1035
          51   -0.0144    0.0235    0.0038   -0.0122    0.0097   -0.0144    0.0129   -0.0622
          52    0.0834    0.0958   -0.0001   -0.0053    0.0113   -0.0029   -0.0254   -0.0227
          53    0.0145    0.0184   -0.0004   -0.0005    0.0018    0.0028   -0.0073    0.0029
          54    0.0065    0.0091    0.0001    0.0023    0.0010    0.0252    0.0066   -0.1324
          55    0.0874    0.1286   -0.0002   -0.0023    0.0105   -0.0089   -0.0085   -0.0089
          56    0.0075    0.0105   -0.0001    0.0030    0.0001   -0.0580   -0.0053    0.1952
          57   -0.0208   -0.0287   -0.0001   -0.0001   -0.0065    0.0513    0.0033   -0.0974


   Root No.      33        34        35        36        37        38        39        40

                33 A      34 A      35 A      36 A      37 A      38 A      39 A      40 A   

                1357.7    1375.1    1389.8    1444.6    1468.2    1526.3    1674.6    2671.9
  
           1   -0.0043    0.0007    0.0025    0.0006   -0.0067   -0.0184   -0.0123   -0.0000
           2   -0.0020    0.0008   -0.0059   -0.0395    0.0708   -0.0233    0.0749    0.0001
           3    0.0010    0.0003   -0.0024   -0.0046    0.0026    0.0056   -0.0071    0.0001
           4   -0.0033   -0.0008   -0.0014   -0.0024   -0.0141    0.0149   -0.0105    0.0000
           5    0.0003    0.0095    0.0013   -0.0233   -0.0148   -0.0294   -0.0495    0.0001
           6    0.0022   -0.0199   -0.0003    0.0464    0.0293    0.0345    0.0604    0.0002
           7    0.0094    0.0007   -0.0032   -0.0118    0.0190    0.0029    0.0024    0.0000
           8   -0.0329   -0.0062   -0.0063    0.0173   -0.0393    0.0610   -0.1215   -0.0003
           9   -0.0225    0.0008    0.0129    0.0245   -0.0330   -0.0406    0.0614   -0.0001
          10   -0.0031   -0.0017    0.0017   -0.0016   -0.0112    0.0163    0.0092   -0.0022
          11   -0.0220   -0.0018   -0.0006    0.0251   -0.0374   -0.0453    0.0565    0.0013
          12    0.0319    0.0008   -0.0104   -0.0265    0.0399    0.0371   -0.0585    0.0024
          13   -0.0030   -0.0001    0.0023   -0.0046   -0.0038   -0.0182    0.0101    0.0004
          14   -0.0042    0.0221    0.0031    0.0516    0.0477   -0.0256   -0.0718    0.0004
          15   -0.0011    0.0030   -0.0000    0.0058    0.0008    0.0063    0.0082    0.0003
          16   -0.0015    0.0015    0.0110    0.0015    0.0024   -0.0043   -0.0005   -0.0432
          17    0.0160    0.0039   -0.0488   -0.0039    0.0078    0.0047   -0.0037   -0.0109
          18   -0.0061   -0.0001    0.0001    0.0049   -0.0073   -0.0039    0.0036   -0.0123
          19    0.0102    0.0004   -0.0013   -0.0029    0.0052    0.0019   -0.0013   -0.0011
          20    0.0713    0.0111   -0.0056    0.0158   -0.0096   -0.0492    0.0302    0.0028
          21   -0.0716   -0.0080    0.0101    0.0187   -0.0371    0.0202   -0.0204    0.0048
          22   -0.0050    0.0063   -0.0019    0.0103    0.0062   -0.0509    0.0179   -0.0060
          23   -0.0220    0.0005    0.0276   -0.0120    0.0228    0.0387   -0.0441   -0.0179
          24    0.0303   -0.0004   -0.0256   -0.0078    0.0075    0.0011   -0.0076   -0.0418
          25    0.0110   -0.0068   -0.0849    0.0051   -0.0101   -0.0065    0.0044    0.0691
          26   -0.0368   -0.0136    0.2118   -0.0130    0.0081    0.0085   -0.0001    0.1385
          27    0.0179    0.0111   -0.0997    0.0081   -0.0035   -0.0065    0.0015    0.2503
          28   -0.0039   -0.0006    0.0380   -0.0038    0.0047    0.0061   -0.0061    0.4436
          29   -0.0174   -0.0078    0.2176   -0.0304    0.0186    0.0422   -0.0121   -0.0722
          30    0.0008   -0.0007    0.0048   -0.0031    0.0041    0.0022   -0.0028    0.0172
          31   -0.0094   -0.0075   -0.0953    0.0187   -0.0292   -0.0238    0.0218    0.0314
          32    0.0176   -0.0095    0.1932   -0.0447    0.0563    0.0396   -0.0313    0.0677
          33   -0.0003   -0.0121    0.0957   -0.0193    0.0188    0.0192   -0.0192   -0.1126
          34    0.0177   -0.0045   -0.0020    0.0205   -0.0269    0.0525   -0.0158   -0.0000
          35    0.2410    0.0194    0.0346    0.0335   -0.0444   -0.0110    0.0018   -0.0008
          36   -0.1633   -0.0119   -0.0260   -0.0477    0.0702   -0.0092    0.0367   -0.0011
          37    0.0033   -0.0057   -0.0112    0.0105    0.0108    0.0619   -0.0009   -0.0001
          38    0.2213    0.0192    0.0509    0.0580   -0.0718   -0.0443    0.0328   -0.0001
          39    0.1468    0.0111    0.0340    0.0640   -0.0857   -0.0036   -0.0082    0.0002
          40   -0.0001    0.0000    0.0001    0.0170    0.0127    0.0019   -0.0002    0.0000
          41   -0.0009    0.0137   -0.0024   -0.0206   -0.0304    0.0661    0.1226   -0.0000
          42   -0.0011   -0.0069    0.0009   -0.0367   -0.0191   -0.0439   -0.0689   -0.0001
          43   -0.0011    0.0005    0.0007    0.0024    0.0017    0.0015    0.0007   -0.0003
          44    0.0084   -0.0525    0.0057   -0.0134    0.0046   -0.0486   -0.0342    0.0008
          45   -0.0066    0.0282   -0.0026   -0.0302   -0.0300    0.0190    0.0149    0.0014
          46    0.0102   -0.0144   -0.0014   -0.0197   -0.0172    0.0548    0.0153   -0.0007
          47    0.0284   -0.1452   -0.0127   -0.0475   -0.0342   -0.0137    0.0003   -0.0047
          48   -0.0236    0.1116    0.0101    0.0637    0.0492   -0.0087   -0.0352   -0.0067
          49    0.0216    0.0082   -0.0045   -0.0004    0.0165    0.0673    0.0027   -0.0002
          50    0.0274   -0.1626   -0.0116   -0.0833   -0.0511   -0.0504   -0.0360   -0.0018
          51    0.0251   -0.1159   -0.0106   -0.0842   -0.0564   -0.0051    0.0052    0.0030
          52    0.0144   -0.0023    0.0041   -0.0016    0.0463   -0.0512   -0.0016    0.0001
          53    0.0036    0.0076    0.0019   -0.0248   -0.0050   -0.0310   -0.0267   -0.0007
          54   -0.0082    0.1945   -0.0004   -0.1226   -0.0864    0.0140    0.0234    0.0001
          55    0.0011    0.0223    0.0048   -0.0235    0.0122   -0.0546   -0.0161   -0.0004
          56    0.0013   -0.1680   -0.0029    0.0834    0.0528    0.0213    0.0303   -0.0009
          57    0.0006    0.0558    0.0005   -0.0050   -0.0072    0.0163    0.0218   -0.0024


   Root No.      41        42        43        44        45        46        47        48

                41 A      42 A      43 A      44 A      45 A      46 A      47 A      48 A   

                2676.3    2699.4    2701.1    2704.8    2727.3    2758.1    2763.4    2765.9
  
           1    0.0001    0.0006    0.0002    0.0003   -0.0004    0.0034   -0.0023   -0.0018
           2   -0.0001   -0.0008   -0.0004   -0.0004    0.0005    0.0109   -0.0066   -0.0091
           3   -0.0003   -0.0233   -0.0127   -0.0175    0.0043   -0.0027    0.0013    0.0035
           4   -0.0000   -0.0006   -0.0003    0.0007   -0.0004    0.0032   -0.0020    0.0025
           5    0.0001    0.0157   -0.0014   -0.0197    0.0021   -0.0079    0.0024   -0.0092
           6    0.0003    0.0111    0.0002   -0.0142    0.0005    0.0051   -0.0074    0.0065
           7    0.0000   -0.0006   -0.0005   -0.0008   -0.0023    0.0014   -0.0012   -0.0022
           8   -0.0005    0.0017    0.0009    0.0021    0.0045   -0.0018    0.0013    0.0031
           9    0.0008    0.0016    0.0014    0.0019    0.0065   -0.0064    0.0041    0.0082
          10    0.0013   -0.0002   -0.0000   -0.0003   -0.0035    0.0001    0.0012   -0.0003
          11    0.0028   -0.0008    0.0011   -0.0009   -0.0122   -0.0015   -0.0000    0.0005
          12    0.0036   -0.0003    0.0026   -0.0010   -0.0299   -0.0036    0.0004    0.0020
          13    0.0003   -0.0001    0.0006   -0.0005   -0.0017    0.0016    0.0042   -0.0008
          14   -0.0000   -0.0003   -0.0010    0.0009   -0.0015    0.0057    0.0151   -0.0049
          15    0.0014    0.0072   -0.0338    0.0085   -0.0041   -0.0041   -0.0037   -0.0023
          16    0.0117   -0.0001    0.0000   -0.0002   -0.0013    0.0001    0.0005    0.0001
          17    0.0041   -0.0001    0.0001   -0.0001   -0.0009    0.0002   -0.0009   -0.0012
          18   -0.0421    0.0002   -0.0003   -0.0003   -0.0082   -0.0008   -0.0001    0.0004
          19   -0.0004    0.0119    0.0071    0.0122    0.0309   -0.0202    0.0138    0.0273
          20    0.0006   -0.0222   -0.0129   -0.0231   -0.0644    0.0399   -0.0274   -0.0542
          21    0.0015   -0.0454   -0.0270   -0.0459   -0.1153    0.0779   -0.0527   -0.1045
          22   -0.0104    0.0012   -0.0029    0.0023    0.0494    0.0053   -0.0005   -0.0021
          23   -0.0349    0.0063   -0.0172    0.0102    0.1867    0.0193   -0.0005   -0.0084
          24   -0.0825    0.0141   -0.0377    0.0224    0.4058    0.0436   -0.0025   -0.0200
          25    0.1060   -0.0005    0.0016    0.0004    0.0112   -0.0002    0.0044    0.0052
          26    0.1586   -0.0007    0.0018    0.0009    0.0230    0.0003    0.0058    0.0067
          27    0.2579   -0.0012    0.0038    0.0013    0.0314   -0.0006    0.0117    0.0139
          28   -0.0965    0.0007   -0.0021    0.0037    0.0420    0.0047   -0.0164   -0.0169
          29    0.0166   -0.0001    0.0003   -0.0005   -0.0055   -0.0004    0.0019    0.0017
          30   -0.0270    0.0001   -0.0002    0.0000   -0.0017   -0.0000   -0.0008   -0.0007
          31   -0.1570    0.0009   -0.0007   -0.0010   -0.0311   -0.0046    0.0055    0.0090
          32   -0.2182    0.0013   -0.0008   -0.0011   -0.0413   -0.0063    0.0065    0.0113
          33    0.2983   -0.0018    0.0013    0.0015    0.0564    0.0089   -0.0102   -0.0170
          34    0.0003    0.0264    0.0147    0.0205   -0.0042   -0.0136    0.0089    0.0104
          35    0.0014    0.1209    0.0646    0.0857   -0.0181   -0.0605    0.0385    0.0460
          36    0.0021    0.1657    0.0886    0.1167   -0.0242   -0.0978    0.0616    0.0759
          37   -0.0005   -0.0316   -0.0177   -0.0252    0.0059   -0.0273    0.0157    0.0251
          38   -0.0008   -0.1031   -0.0571   -0.0811    0.0188   -0.0865    0.0505    0.0770
          39    0.0013    0.1346    0.0750    0.1070   -0.0252    0.1294   -0.0757   -0.1143
          40    0.0001    0.0007   -0.0012   -0.0007   -0.0005    0.0025    0.0020    0.0024
          41   -0.0000   -0.0010    0.0028   -0.0000    0.0014   -0.0052   -0.0017   -0.0063
          42   -0.0000   -0.0024    0.0032    0.0027    0.0019   -0.0094   -0.0087   -0.0082
          43   -0.0004   -0.0130    0.0192    0.0102    0.0076   -0.0322   -0.0252   -0.0299
          44    0.0008    0.0279   -0.0382   -0.0230   -0.0158    0.0686    0.0524    0.0643
          45    0.0016    0.0508   -0.0766   -0.0389   -0.0303    0.1291    0.1019    0.1191
          46   -0.0019   -0.0091    0.0428   -0.0104    0.0083   -0.0055   -0.0213    0.0093
          47   -0.0064   -0.0371    0.1712   -0.0416    0.0266   -0.0220   -0.0854    0.0391
          48   -0.0085   -0.0505    0.2340   -0.0568    0.0381   -0.0393   -0.1374    0.0580
          49    0.0020    0.0104   -0.0484    0.0120   -0.0040   -0.0191   -0.0391    0.0077
          50    0.0067    0.0324   -0.1514    0.0380   -0.0098   -0.0573   -0.1191    0.0224
          51   -0.0089   -0.0428    0.2004   -0.0503    0.0115    0.0848    0.1796   -0.0360
          52   -0.0000    0.0274   -0.0023   -0.0362    0.0055   -0.0250    0.0138   -0.0309
          53    0.0000   -0.1388    0.0108    0.1824   -0.0278    0.1350   -0.0766    0.1617
          54    0.0001    0.0088   -0.0004   -0.0108    0.0008   -0.0003   -0.0014   -0.0004
          55   -0.0005   -0.0222    0.0016    0.0287   -0.0009   -0.0097    0.0125   -0.0124
          56   -0.0015   -0.0596    0.0024    0.0702   -0.0002   -0.0353    0.0396   -0.0444
          57   -0.0038   -0.1615    0.0072    0.1917   -0.0038   -0.0744    0.0939   -0.0950


   Root No.      49        50        51

                49 A      50 A      51 A   

                2769.3    2773.4    2781.2
  
           1   -0.0014    0.0008   -0.0001
           2   -0.0074    0.0089    0.0001
           3   -0.0042    0.0014    0.0015
           4   -0.0014   -0.0011    0.0003
           5    0.0007    0.0039   -0.0006
           6   -0.0068   -0.0092    0.0010
           7    0.0032   -0.0023   -0.0012
           8   -0.0078    0.0056    0.0020
           9   -0.0136    0.0091    0.0054
          10   -0.0007   -0.0005   -0.0008
          11   -0.0011    0.0008    0.0066
          12   -0.0052    0.0037    0.0040
          13   -0.0013   -0.0011    0.0007
          14   -0.0068   -0.0078    0.0015
          15   -0.0029   -0.0021    0.0001
          16   -0.0006    0.0000   -0.0037
          17    0.0021   -0.0006    0.0183
          18   -0.0011    0.0006    0.0010
          19   -0.0466    0.0315    0.0165
          20    0.0946   -0.0637   -0.0325
          21    0.1793   -0.1206   -0.0637
          22    0.0065   -0.0038   -0.0057
          23    0.0229   -0.0160   -0.0252
          24    0.0535   -0.0372   -0.0521
          25   -0.0079    0.0022   -0.0782
          26   -0.0101    0.0025   -0.1145
          27   -0.0211    0.0058   -0.2152
          28    0.0335   -0.0091    0.2343
          29   -0.0039    0.0009   -0.0265
[...]
     16       H        4.161647        0.737603        0.885592
     17       H        4.181302        0.697639        0.854716
     18       H        4.184381        0.676594        0.852156
     19       H        4.163918        0.720277        0.885591
 *******************************************************************************
 ** Site#: 37037        For non-commercial use only           Version 21.158W **
 *******************************************************************************
 ** Cite this program as: MOPAC2016, Version: 21.158W, James J. P. Stewart,   **
 ** Stewart Computational Chemistry, web: HTTP://OpenMOPAC.net. Days left: 363**
 *******************************************************************************
 **                                                                           **
 **                                MOPAC2016                                  **
 **                                                                           **
 *******************************************************************************

                              PM7 CALCULATION RESULTS

 *******************************************************************************
 *  CALCULATION DONE:                                Wed Jun  9 10:25:58 2021  *
 *  IRC=N      - INTRINSIC REACTION COORDINATE -1 DEFINED
 *  OLDGEO     - PREVIOUS GEOMETRY TO BE USED
 *  RESTART    - CALCULATION RESTARTED
 *  T=         - A TIME OF 172800.0 SECONDS REQUESTED
 *  DUMP=N     - RESTART FILE WRITTEN EVERY 7200.0 SECONDS REQUESTED
 *  HTML       - WRITE HTML SCRIPT TO GENERATE ANIMATION USING JSMOL
 *             - TO DISPLAY IN PDB FORMAT, ADD "PDBOUT"
 *  X-PRIOR    - GEOMETRY CHANGES TAKE PRIORITY IN DRC
 *******************************************************************************
oldgeo IRC=-1* HTML x-priority=0.2 restart
 Generate the reaction coordinate for the reaction 3-methyl-1,5-hexadiene => 1,5-heptadiene.

  ATOM    CHEMICAL      BOND LENGTH      BOND ANGLE     TWIST ANGLE 
 NUMBER    SYMBOL       (ANGSTROMS)      (DEGREES)       (DEGREES) 
   (I)                     NA:I           NB:NA:I       NC:NB:NA:I       NA    NB    NC 
     1       C          0.00000000       0.0000000       0.0000000        0     0     0
     2       C          1.93282855  *    0.0000000       0.0000000        1     0     0
     3       C          1.39871967  *  101.4906573  *    5.6005558  *     1     2     0
     4       C          1.40718214  *  120.5016794  *   70.3587712  *     3     1     2
     5       C          1.92554747  *  100.4861856  *  -69.5403452  *     4     3     1
     6       C          1.50604464  *  118.4425686  *  177.8009749  *     4     3     1
     7       H          1.08617233  *  119.2865358  *  -97.7270693  *     3     1     2
     8       H          1.09698793  *  118.3752891  *   33.7737095  *     4     3     1
     9       H          1.09722022  *  112.3059950  *   46.6373730  *     6     4     3
    10       H          1.09969765  *  110.5399100  *  -72.8628037  *     6     4     3
    11       H          1.09667449  *  112.0805381  *  167.6249561  *     6     4     3
    12       H          1.08686071  *   97.1587974  *  122.6873324  *     1     2     3
    13       H          1.08531353  *  100.5988887  * -123.3225221  *     1     2     3
    14       C          1.39874580  *  100.3508297  *  -56.0552817  *     2     1     3
    15       H          1.08680167  *  119.3348382  *  -97.6064051  *    14     2     1
    16       H          1.08698532  *   97.7284797  *  -67.1743332  *     5     4     3
    17       H          1.08502761  *  100.8526692  *  178.7590049  *     5     4     3
    18       H          1.08473772  *  101.1779087  * -179.4624391  *     2     1     3
    19       H          1.08676970  *   97.2275865  *   66.3255269  *     2     1     3
 


          CARTESIAN COORDINATES 

    NO.       ATOM           X           Y           Z

     1         C          0.0000      0.0000      0.0000
     2         C          1.9328      0.0000      0.0000
     3         C         -0.2786      1.3707      0.0000
     4         C         -0.0215      2.1518     -1.1419
     5         C          1.9040      2.1428     -1.1464
     6         C         -0.3858      3.6127     -1.1085
     7         H         -0.5093      1.8660      0.9387
     8         H         -0.1497      1.6904     -2.1288
     9         H         -0.0515      4.1043     -0.1862
    10         H         -1.4766      3.7398     -1.1648
    11         H          0.0488      4.1653     -1.9502
    12         H         -0.1354     -0.5824     -0.9076
    13         H         -0.1996     -0.5860      0.8914
    14         C          2.1841      0.7683     -1.1415
    15         H          2.4032      0.2692     -2.0817
    16         H          2.0550      2.7248     -0.2408
    17         H          2.1089      2.7252     -2.0387
    18         H          2.1431     -1.0641     -0.0100
    19         H          2.0696      0.4329      0.9874

 General Reference for PM7:
 "Optimization of Parameters for Semiempirical Methods VI: More Modifications to the 
 NDDO Approximations and Re-optimization of Parameters", J. J. P. Stewart, J. Mol. Mod., 1:32, 19 (2013)
 https://link.springer.com/article/10.1007/s00894-012-1667-x

           Empirical Formula: C7 H12  =    19 atoms



      MOLECULAR POINT GROUP   :   C1  


      RHF CALCULATION, NO. OF DOUBLY OCCUPIED LEVELS = 20


          MOLECULAR WEIGHT =   96.17


          ESTIMATED TIME TO COMPLETE CALCULATION =        0.00 SECONDS

          TIME USED UP TO RESTART =                  0.67

    FOR POINT-GROUP C1   THERE ARE   1 UNIQUE SYMMETRY FUNCTIONS.

           INITIAL VELOCITY IN DRC (Angstroms/Femtosecond)
         0.12280        -0.02240        -0.00109
        -0.12126        -0.01198         0.01985
         0.00010         0.03384        -0.01923
        -0.11799        -0.01251         0.02108
         0.11940        -0.02391        -0.00164
        -0.00426         0.00176        -0.00036
        -0.00408        -0.01637         0.00536
         0.07188         0.00105        -0.00212
         0.00680        -0.00211        -0.00176
        -0.00369         0.03989        -0.00398
         0.01425        -0.01760        -0.00234
        -0.06979        -0.00168         0.00631
        -0.00807         0.01128        -0.00145
         0.00085         0.03444        -0.01894
         0.00029        -0.01463         0.00715
        -0.06914        -0.00197         0.00789
        -0.00984         0.01020        -0.00238
         0.00509         0.00739        -0.00699
         0.07059        -0.00636        -0.00195

 GEOMETRY PRIORITY, STEP = 0.2000 ANGSTROMS



     POINT   POTENTIAL  +  ENERGY LOST   =   TOTAL      ERROR    REF%   MOVEMENT
       1      43.67978      0.00000         43.67978   0.00000     1   %  0.0000
      16      42.65441      0.59081         43.24522  -0.12646     2   %  0.2000
      53      39.99699      3.24104         43.23803  -0.13366     3   %  0.3951
      70      36.46448      6.77414         43.23862  -0.13307     4   %  0.5928
     100      32.76080     10.48411         43.24492  -0.12677     5   %  0.7908
     136      29.39161     13.86056         43.25217  -0.11952     6   %  0.9847
     174      26.54654     16.71319         43.25973  -0.11196     7   %  1.1752
     212      24.26600     19.00109         43.26709  -0.10459     8   %  1.3623
     246      22.46342     20.81047         43.27389  -0.09779     9   %  1.5443
     277      20.99615     22.28389         43.28004  -0.09165    10   %  1.7185
     306      19.76078     23.52488         43.28565  -0.08603    11   %  1.8824
     332      18.71590     24.57489         43.29079  -0.08090    12   %  2.0355
     356      17.83367     25.46177         43.29544  -0.07625    13   %  2.1814
     377      17.08810     26.21154         43.29965  -0.07204    14   %  2.3246
     397      16.45533     26.84814         43.30346  -0.06822    15   %  2.4690
     414      15.91582     27.39113         43.30695  -0.06474    16   %  2.6178
     431      15.45417     27.85596         43.31013  -0.06156    17   %  2.7728
     446      15.05815     28.25489         43.31304  -0.05865    18   %  2.9333
     459      14.71777     28.59792         43.31569  -0.05599    19   %  3.0972
     472      14.42468     28.89342         43.31810  -0.05358    20   %  3.2632
     483      14.17184     29.14843         43.32028  -0.05141    21   %  3.4311
     496      13.95263     29.37043         43.32306  -0.04863    22   %  3.6008
     509      13.76400     29.56198         43.32597  -0.04572    23   %  3.7699
     523      13.60052     29.72933         43.32985  -0.04184    24   %  3.9377
     540      13.45501     29.88477         43.33978  -0.03190    25   %  4.1058
     558      13.32545     30.02333         43.34878  -0.02291    26   %  4.2734
     574      13.21280     30.14626         43.35906  -0.01262    27   %  4.4361
     599      13.10532     30.28334         43.38866   0.01697    28   %  4.6028
     616      13.01868     30.38737         43.40605   0.03436    29   %  4.7506
     643      12.92005     30.52143         43.44149   0.06980    30   %  4.9321
     669      12.83811     30.64030         43.47841   0.10672    31   %  5.0969
     688      12.76425     30.74840         43.51265   0.14096    32   %  5.2566
     717      12.69102     30.85980         43.55083   0.17914    33   %  5.4294
     746      12.62280     30.96047         43.58326   0.21158    34   %  5.5977
     780      12.55645     31.09653         43.65298   0.28130    35   %  5.7749
     812      12.49655     31.18968         43.68622   0.31453    36   %  5.9469
     855      12.43953     31.31393         43.75346   0.38177    37   %  6.1228
     898      12.38673     31.43228         43.81901   0.44732    38   %  6.2965
     942      12.33620     31.55978         43.89598   0.52429    39   %  6.4736
     988      12.28842     31.68217         43.97059   0.59890    40   %  6.6518
    1037      12.24585     31.79054         44.03640   0.66471    41   %  6.8283
    1084      12.21367     31.93965         44.15333   0.78164    42   %  7.0089
    1156      12.16127     32.10940         44.27067   0.89898    43   %  7.1855
    1218      12.12388     32.23935         44.36323   0.99154    44   %  7.3622
    1290      12.08967     32.37602         44.46570   1.09401    45   %  7.5299
    1374      12.05374     32.56238         44.61611   1.24443    46   %  7.7149
    1454      12.02109     32.73945         44.76055   1.38886    47   %  7.8886
    1548      11.99114     32.94052         44.93165   1.55996    48   %  8.0579
    1641      11.96223     33.13712         45.09935   1.72766    49   %  8.2250
    1746      11.93371     33.36080         45.29450   1.92281    50   %  8.3879
    1860      11.90823     33.58238         45.49061   2.11892    51   %  8.5441
    1980      11.88279     33.79639         45.67918   2.30749    52   %  8.6957
    2106      11.85937     34.03435         45.89372   2.52203    53   %  8.8396
    2234      11.84291     34.27230         46.11522   2.74353    54   %  8.9767
    2372      11.81681     34.52853         46.34534   2.97365    55   %  9.1074
    2509      11.79762     34.78500         46.58262   3.21093    56   %  9.2312
    2649      11.77934     35.04466         46.82399   3.45230    57   %  9.3508
    2791      11.76209     35.29709         47.05918   3.68749    58   %  9.4662
    2933      11.74619     35.54968         47.29587   3.92418    59   %  9.5761
    3086      11.73062     35.82369         47.55431   4.18262    60   %  9.6860
    3240      11.71584     36.09615         47.81199   4.44030    61   %  9.7950
    3403      11.70184     36.38978         48.09162   4.71993    62   %  9.9016
    3563      11.68878     36.66312         48.35190   4.98021    63   % 10.0064
    3737      11.68080     36.93211         48.61291   5.24122    64   % 10.1143
    3922      11.66377     37.20289         48.86666   5.49497    65   % 10.2207


 IRC CALCULATION COMPLETE 
           INITIAL VELOCITY IN DRC (Angstroms/Femtosecond)
        -0.12280         0.02240         0.00109
         0.12126         0.01198        -0.01985
        -0.00010        -0.03384         0.01923
         0.11799         0.01251        -0.02108
        -0.11940         0.02391         0.00164
         0.00426        -0.00176         0.00036
         0.00408         0.01637        -0.00536
        -0.07188        -0.00105         0.00212
        -0.00680         0.00211         0.00176
         0.00369        -0.03989         0.00398
        -0.01425         0.01760         0.00234
         0.06979         0.00168        -0.00631
         0.00807        -0.01128         0.00145
        -0.00085        -0.03444         0.01894
        -0.00029         0.01463        -0.00715
         0.06914         0.00197        -0.00789
         0.00984        -0.01020         0.00238
        -0.00509        -0.00739         0.00699
        -0.07059         0.00636         0.00195

 GEOMETRY PRIORITY, STEP = 0.2000 ANGSTROMS



     POINT   POTENTIAL  +  ENERGY LOST   =   TOTAL      ERROR    REF%   MOVEMENT
       1      43.67978      0.00000         43.67978   0.00000     1   %  0.0000
      30      42.57964      0.61076         43.19039  -0.14347     2   %  0.2000
     130      39.69620      3.47435         43.17055  -0.16332     3   %  0.3990
     163      35.77933      7.38488         43.16421  -0.16966     4   %  0.5961
     182      31.56709     11.60106         43.16815  -0.16572     5   %  0.7916
     218      27.59353     15.58188         43.17541  -0.15846     6   %  0.9837
     260      24.22992     18.95382         43.18374  -0.15013     7   %  1.1713
     302      21.62189     21.57018         43.19207  -0.14180     8   %  1.3523
     339      19.69668     23.50277         43.19945  -0.13442     9   %  1.5194
     371      18.21788     24.98784         43.20572  -0.12815    10   %  1.6688
     399      17.03098     26.18015         43.21113  -0.12274    11   %  1.8013
     423      16.06838     27.14744         43.21582  -0.11805    12   %  1.9249
     444      15.28110     27.93880         43.21990  -0.11397    13   %  2.0501
     462      14.62398     28.59953         43.22351  -0.11035    14   %  2.1852
     479      14.06529     29.16147         43.22677  -0.10710    15   %  2.3303
     494      13.58257     29.64715         43.22973  -0.10414    16   %  2.4814
     508      13.15972     30.07272         43.23245  -0.10142    17   %  2.6357
     521      12.78497     30.44999         43.23495  -0.09891    18   %  2.7921
     533      12.44947     30.78780         43.23727  -0.09660    19   %  2.9503
     544      12.14649     31.09293         43.23942  -0.09445    20   %  3.1102
     554      11.87076     31.37064         43.24140  -0.09247    21   %  3.2716
     563      11.61818     31.62505         43.24322  -0.09064    22   %  3.4345
     575      11.38546     31.86006         43.24552  -0.08835    23   %  3.5987
     586      11.17018     32.07778         43.24797  -0.08590    24   %  3.7643
     598      10.97025     32.28049         43.25074  -0.08313    25   %  3.9310
     610      10.79329     32.46100         43.25429  -0.07958    26   %  4.0892
     623      10.61507     32.64357         43.25865  -0.07522    27   %  4.2612
     640      10.44586     32.82252         43.26837  -0.06549    28   %  4.4377
     656      10.29206     32.98469         43.27675  -0.05712    29   %  4.6098
     672      10.14840     33.13825         43.28665  -0.04721    30   %  4.7823
     686      10.01321     33.28388         43.29708  -0.03678    31   %  4.9565
     702       9.89333     33.41725         43.31058  -0.02329    32   %  5.1216
     726       9.76626     33.57336         43.33962   0.00575    33   %  5.3089
     743       9.66729     33.69003         43.35732   0.02345    34   %  5.4650
     770       9.54803     33.83930         43.38733   0.05347    35   %  5.6665
     787       9.45614     33.95809         43.41423   0.08036    36   %  5.8328
     814       9.35593     34.10320         43.45913   0.12526    37   %  6.0271
     835       9.27021     34.21628         43.48649   0.15262    38   %  6.2089
     864       9.18652     34.34180         43.52832   0.19446    39   %  6.3912
     894       9.10800     34.46624         43.57424   0.24037    40   %  6.5761
     924       9.03650     34.58047         43.61696   0.28309    41   %  6.7599
     956       8.96837     34.72421         43.69258   0.35871    42   %  6.9451
     990       8.90562     34.84532         43.75094   0.41707    43   %  7.1303
    1030       8.84747     34.93983         43.78730   0.45343    44   %  7.3147
    1075       8.78915     35.08109         43.87024   0.53637    45   %  7.5030
    1120       8.73722     35.19560         43.93282   0.59895    46   %  7.6891
    1168       8.68834     35.32957         44.01791   0.68404    47   %  7.8759
    1224       8.64306     35.45837         44.10143   0.76756    48   %  8.0630
    1281       8.60048     35.59921         44.19969   0.86582    49   %  8.2506
    1334       8.56269     35.75555         44.31823   0.98437    50   %  8.4289
    1406       8.52387     35.90655         44.43042   1.09655    51   %  8.6249
    1471       8.48791     36.09014         44.57805   1.24418    52   %  8.8109
    1550       8.45615     36.27197         44.72811   1.39424    53   %  8.9952
    1628       8.43372     36.46352         44.89724   1.56338    54   %  9.1722
    1718       8.40614     36.63844         45.04458   1.71071    55   %  9.3515
    1822       8.37536     36.82786         45.20322   1.86935    56   %  9.5329
    1940       8.35253     37.02279         45.37532   2.04145    57   %  9.7062
    2072       8.33044     37.22272         45.55316   2.21929    58   %  9.8769
    2209       8.30985     37.50274         45.81259   2.47872    59   % 10.0430
    2357       8.29110     37.71356         46.00467   2.67080    60   % 10.2029
    2521       8.27750     37.95800         46.23550   2.90163    61   % 10.3560
    2694       8.25611     38.26099         46.51710   3.18323    62   % 10.5018
    2865       8.24124     38.53158         46.77281   3.43894    63   % 10.6396
    3050       8.22594     38.84402         47.06996   3.73609    64   % 10.7706
    3228       8.21223     39.16895         47.38118   4.04731    65   % 10.8951
    3412       8.19916     39.46606         47.66522   4.33135    66   % 11.0138
    3585       8.18746     39.79379         47.98125   4.64738    67   % 11.1259
    3771       8.18101     40.10538         48.28639   4.95252    68   % 11.2362
    3961       8.16447     40.45198         48.61646   5.28259    69   % 11.3421
    4155       8.15387     40.77228         48.92615   5.59228    70   % 11.4460
    4338       8.14410     41.04805         49.19215   5.85828    71   % 11.5461
    4528       8.13476     41.43888         49.57364   6.23978    72   % 11.6497
    4734       8.12452     41.73697         49.86149   6.52762    73   % 11.7504
    4942       8.11525     42.05878         50.17403   6.84016    74   % 11.8522

           NUMBER OF CYCLES EXCEEDED, RESTART FILE WRITTEN
           Number of cycles allowed in this run =   5000
           To increase the number of cycles, use keyword "CYCLES=n",
           where "n" is the number of cycles you want to run

 **********************
 *                    *
 * JOB ENDED NORMALLY *
 *                    *
 **********************



 TOTAL JOB TIME:            44.99 SECONDS

 == MOPAC DONE ==
