 INFO
nunit      1    1    1
unit   cell
celltype   convcell
shape   parapipedal
 END_INFO
 DIM-GROUP
           3           1
 PRIMVEC
   11.5538806710    0.0000000000    0.0000000000
    0.0000000000   11.5538806710    0.0000000000
    0.0000000000    0.0000000000   11.5538806710
 CONVVEC
   11.5538806710    0.0000000000    0.0000000000
    0.0000000000   11.5538806710    0.0000000000
    0.0000000000    0.0000000000   11.5538806710
 PRIMCOORD
          64           1
 79      0.0000000000     0.0000000000     0.0000000000     0.0000000000     0.0000000000     0.0000000000
 32      5.7769414380     5.7769414380     0.0000000000     0.0000000000     0.0000000000     0.0000000000
 32      5.7769414380     0.0000000000     5.7769414380     0.0000000000     0.0000000000     0.0000000000
 32      0.0000000000     5.7769414380     5.7769414380     0.0000000000     0.0000000000     0.0000000000
 32      8.6666655110     8.6666655110     5.7775794090     0.0000168700     0.0000168700     0.0000508900
 32      8.6651286830     2.8887541940    -0.0083563340    -0.0000498200     0.0000498200     0.0000632000
 32      2.8887541940     8.6651286830    -0.0083563340     0.0000498200    -0.0000498200     0.0000632000
 32      2.8872173660     2.8872173660     5.7775794090    -0.0000168700    -0.0000168700     0.0000508900
 32     11.5622392110     8.6651286830     8.6651286830    -0.0000632000    -0.0000498200    -0.0000498200
 32     11.5622392110     2.8887541940     2.8887541940    -0.0000632000     0.0000498200     0.0000498200
 32      5.7763034680     8.6666655110     2.8872173660    -0.0000508900     0.0000168700    -0.0000168700
 32      5.7763034680     2.8872173660     8.6666655110    -0.0000508900    -0.0000168700     0.0000168700
 32      5.7775678550     8.6666655110     8.6666655110     0.0000508900     0.0000168700     0.0000168700
 32      5.7775678550     2.8872173660     2.8872173660     0.0000508900    -0.0000168700    -0.0000168700
 32     -0.0083678880     8.6651286830     2.8887541940     0.0000632000    -0.0000498200     0.0000498200
 32     -0.0083678880     2.8887541940     8.6651286830     0.0000632000     0.0000498200    -0.0000498200
 32      8.6651286830     8.6651286830    11.5622507650    -0.0000498200    -0.0000498200    -0.0000632000
 32      8.6666655110     2.8872173660     5.7763150220     0.0000168700    -0.0000168700    -0.0000508900
 32      2.8872173660     8.6666655110     5.7763150220    -0.0000168700     0.0000168700    -0.0000508900
 32      2.8887541940     2.8887541940    11.5622507650     0.0000498200     0.0000498200    -0.0000632000
 32      8.6666655110     5.7775678550     8.6666655110     0.0000168700     0.0000508900     0.0000168700
 32      8.6651286830    -0.0083678880     2.8887541940    -0.0000498200     0.0000632000     0.0000498200
 32      2.8872173660     5.7775678550     2.8872173660    -0.0000168700     0.0000508900    -0.0000168700
 32      2.8887541940    -0.0083678880     8.6651286830     0.0000498200     0.0000632000    -0.0000498200
 32      8.6651286830    11.5622507650     8.6651286830    -0.0000498200    -0.0000632000    -0.0000498200
 32      8.6666655110     5.7763150220     2.8872173660     0.0000168700    -0.0000508900    -0.0000168700
 32      2.8887541940    11.5622507650     2.8887541940     0.0000498200    -0.0000632000     0.0000498200
 32      2.8872173660     5.7763150220     8.6666655110    -0.0000168700    -0.0000508900     0.0000168700
 32      5.7769414380     5.7769414380     5.7769414380     0.0000000000    -0.0000000000     0.0000000000
 32      5.7769414380     0.0000000000     0.0000000000     0.0000000000     0.0000000000     0.0000000000
 32      0.0000000000     5.7769414380     0.0000000000     0.0000000000     0.0000000000     0.0000000000
 32      0.0000000000     0.0000000000     5.7769414380     0.0000000000    -0.0000000000     0.0000000000
 32      1.4457832100     1.4457832100     1.4457832100     0.0000314900     0.0000314900     0.0000314900
 32      1.4489096560     7.2149055350     7.2149055350    -0.0000919700    -0.0000168700    -0.0000168700
 32      7.2149055350     1.4489096560     7.2149055350    -0.0000168700    -0.0000919700    -0.0000168700
 32      7.2149055350     7.2149055350     1.4489096560    -0.0000168700    -0.0000168700    -0.0000919700
 32      1.4489096560     4.3389773420     4.3389888950    -0.0000919700     0.0000168700     0.0000168700
 32      1.4457832100    10.1080996670    10.1081112210     0.0000314900    -0.0000314900    -0.0000314900
 32      7.2149055350     4.3389773420    10.1049847750    -0.0000168700     0.0000168700     0.0000919700
 32      7.2149055350    10.1049732210     4.3389888950    -0.0000168700     0.0000919700     0.0000168700
 32      4.3390004490     4.3390004490     1.4488981020     0.0000168700     0.0000168700    -0.0000919700
 32      4.3390004490    10.1049963290     7.2148939820     0.0000168700     0.0000919700    -0.0000168700
 32     10.1049963290     4.3390004490     7.2148939820     0.0000919700     0.0000168700    -0.0000168700
 32     10.1081227750    10.1081227750     1.4457716560    -0.0000314900    -0.0000314900     0.0000314900
 32      4.3389773420     1.4489096560     4.3389888950     0.0000168700    -0.0000919700     0.0000168700
 32      4.3389773420     7.2149055350    10.1049847750     0.0000168700    -0.0000168700     0.0000919700
 32     10.1080996670     1.4457832100    10.1081112210    -0.0000314900     0.0000314900    -0.0000314900
 32     10.1049732210     7.2149055350     4.3389888950     0.0000919700    -0.0000168700     0.0000168700
 32      4.3321214410     4.3321214410     7.2217614360    -0.0000116400    -0.0000116400     0.0000116400
 32      4.3265466690    10.1117523920     1.4421304850     0.0000025000     0.0000406300    -0.0000406300
 32     10.1117523920     4.3265466690     1.4421304850     0.0000406300     0.0000025000    -0.0000406300
 32     10.1117523920    10.1117523920     7.2273362080     0.0000406300     0.0000406300    -0.0000025000
 32      7.2217614360     4.3321214410     4.3321329950     0.0000116400    -0.0000116400    -0.0000116400
 32      7.2273362080    10.1117523920    10.1117639460    -0.0000025000     0.0000406300     0.0000406300
 32      1.4421304850     4.3265466690    10.1117639460    -0.0000406300     0.0000025000     0.0000406300
 32      1.4421304850    10.1117523920     4.3265582230    -0.0000406300     0.0000406300     0.0000025000
 32      7.2217614360     7.2217614360     7.2217614360     0.0000116400     0.0000116400     0.0000116400
 32      7.2273362080     1.4421304850     1.4421304850    -0.0000025000    -0.0000406300    -0.0000406300
 32      1.4421304850     7.2273362080     1.4421304850    -0.0000406300    -0.0000025000    -0.0000406300
 32      1.4421304850     1.4421304850     7.2273362080    -0.0000406300    -0.0000406300    -0.0000025000
 32      4.3321214410     7.2217614360     4.3321329950    -0.0000116400     0.0000116400    -0.0000116400
 32      4.3265466690     1.4421304850    10.1117639460     0.0000025000    -0.0000406300     0.0000406300
 32     10.1117523920     7.2273362080    10.1117639460     0.0000406300    -0.0000025000     0.0000406300
 32     10.1117523920     1.4421304850     4.3265582230     0.0000406300    -0.0000406300     0.0000025000
 CONVCOORD
          64           1
 79      0.0000000000     0.0000000000     0.0000000000
 32      5.7769414380     5.7769414380     0.0000000000
 32      5.7769414380     0.0000000000     5.7769414380
 32      0.0000000000     5.7769414380     5.7769414380
 32      8.6666655110     8.6666655110     5.7775794090
 32      8.6651286830     2.8887541940    -0.0083563340
 32      2.8887541940     8.6651286830    -0.0083563340
 32      2.8872173660     2.8872173660     5.7775794090
 32      0.0083585400     8.6651286830     8.6651286830
 32      0.0083585400     2.8887541940     2.8887541940
 32      5.7763034680     8.6666655110     2.8872173660
 32      5.7763034680     2.8872173660     8.6666655110
 32      5.7775678550     8.6666655110     8.6666655110
 32      5.7775678550     2.8872173660     2.8872173660
 32     -0.0083678880     8.6651286830     2.8887541940
 32     -0.0083678880     2.8887541940     8.6651286830
 32      8.6651286830     8.6651286830     0.0083700940
 32      8.6666655110     2.8872173660     5.7763150220
 32      2.8872173660     8.6666655110     5.7763150220
 32      2.8887541940     2.8887541940     0.0083700940
 32      8.6666655110     5.7775678550     8.6666655110
 32      8.6651286830    -0.0083678880     2.8887541940
 32      2.8872173660     5.7775678550     2.8872173660
 32      2.8887541940    -0.0083678880     8.6651286830
 32      8.6651286830     0.0083700940     8.6651286830
 32      8.6666655110     5.7763150220     2.8872173660
 32      2.8887541940     0.0083700940     2.8887541940
 32      2.8872173660     5.7763150220     8.6666655110
 32      5.7769414380     5.7769414380     5.7769414380
 32      5.7769414380     0.0000000000     0.0000000000
 32      0.0000000000     5.7769414380     0.0000000000
 32      0.0000000000     0.0000000000     5.7769414380
 32      1.4457832100     1.4457832100     1.4457832100
 32      1.4489096560     7.2149055350     7.2149055350
 32      7.2149055350     1.4489096560     7.2149055350
 32      7.2149055350     7.2149055350     1.4489096560
 32      1.4489096560     4.3389773420     4.3389888950
 32      1.4457832100    10.1080996670    10.1081112210
 32      7.2149055350     4.3389773420    10.1049847750
 32      7.2149055350    10.1049732210     4.3389888950
 32      4.3390004490     4.3390004490     1.4488981020
 32      4.3390004490    10.1049963290     7.2148939820
 32     10.1049963290     4.3390004490     7.2148939820
 32     10.1081227750    10.1081227750     1.4457716560
 32      4.3389773420     1.4489096560     4.3389888950
 32      4.3389773420     7.2149055350    10.1049847750
 32     10.1080996670     1.4457832100    10.1081112210
 32     10.1049732210     7.2149055350     4.3389888950
 32      4.3321214410     4.3321214410     7.2217614360
 32      4.3265466690    10.1117523920     1.4421304850
 32     10.1117523920     4.3265466690     1.4421304850
 32     10.1117523920    10.1117523920     7.2273362080
 32      7.2217614360     4.3321214410     4.3321329950
 32      7.2273362080    10.1117523920    10.1117639460
 32      1.4421304850     4.3265466690    10.1117639460
 32      1.4421304850    10.1117523920     4.3265582230
 32      7.2217614360     7.2217614360     7.2217614360
 32      7.2273362080     1.4421304850     1.4421304850
 32      1.4421304850     7.2273362080     1.4421304850
 32      1.4421304850     1.4421304850     7.2273362080
 32      4.3321214410     7.2217614360     4.3321329950
 32      4.3265466690     1.4421304850    10.1117639460
 32     10.1117523920     7.2273362080    10.1117639460
 32     10.1117523920     1.4421304850     4.3265582230
 RECIP-PRIMVEC
    0.0865510064    0.0000000000    0.0000000000

    0.0000000000    0.0865510064    0.0000000000

    0.0000000000    0.0000000000    0.0865510064

 RECIP-CONVVEC
    0.0865510064    0.0000000000    0.0000000000

    0.0000000000    0.0865510064    0.0000000000

    0.0000000000    0.0000000000    0.0865510064

 WIGNER-SEITZ-PRIMCELL
           4
 -0.5776940E+01 -0.5776940E+01  0.5776940E+01  -0.1000000E+01  0.0000000E+00  0.0000000E+00
 -0.5776940E+01  0.5776940E+01  0.5776940E+01  -0.1000000E+01  0.0000000E+00  0.0000000E+00
 -0.5776940E+01  0.5776940E+01 -0.5776940E+01  -0.1000000E+01  0.0000000E+00  0.0000000E+00
 -0.5776940E+01 -0.5776940E+01 -0.5776940E+01  -0.1000000E+01  0.0000000E+00  0.0000000E+00
           4
 -0.5776940E+01 -0.5776940E+01 -0.5776940E+01  -0.0000000E+00 -0.1000000E+01 -0.0000000E+00
  0.5776940E+01 -0.5776940E+01 -0.5776940E+01  -0.0000000E+00 -0.1000000E+01 -0.0000000E+00
  0.5776940E+01 -0.5776940E+01  0.5776940E+01  -0.0000000E+00 -0.1000000E+01 -0.0000000E+00
 -0.5776940E+01 -0.5776940E+01  0.5776940E+01  -0.0000000E+00 -0.1000000E+01 -0.0000000E+00
           4
 -0.5776940E+01  0.5776940E+01 -0.5776940E+01   0.0000000E+00  0.0000000E+00 -0.1000000E+01
  0.5776940E+01  0.5776940E+01 -0.5776940E+01   0.0000000E+00  0.0000000E+00 -0.1000000E+01
  0.5776940E+01 -0.5776940E+01 -0.5776940E+01   0.0000000E+00  0.0000000E+00 -0.1000000E+01
 -0.5776940E+01 -0.5776940E+01 -0.5776940E+01   0.0000000E+00  0.0000000E+00 -0.1000000E+01
           4
  0.5776940E+01 -0.5776940E+01  0.5776940E+01  -0.0000000E+00 -0.0000000E+00  0.1000000E+01
  0.5776940E+01  0.5776940E+01  0.5776940E+01  -0.0000000E+00 -0.0000000E+00  0.1000000E+01
 -0.5776940E+01  0.5776940E+01  0.5776940E+01  -0.0000000E+00 -0.0000000E+00  0.1000000E+01
 -0.5776940E+01 -0.5776940E+01  0.5776940E+01  -0.0000000E+00 -0.0000000E+00  0.1000000E+01
           4
 -0.5776940E+01  0.5776940E+01  0.5776940E+01   0.0000000E+00  0.1000000E+01  0.0000000E+00
  0.5776940E+01  0.5776940E+01  0.5776940E+01   0.0000000E+00  0.1000000E+01  0.0000000E+00
  0.5776940E+01  0.5776940E+01 -0.5776940E+01   0.0000000E+00  0.1000000E+01  0.0000000E+00
 -0.5776940E+01  0.5776940E+01 -0.5776940E+01   0.0000000E+00  0.1000000E+01  0.0000000E+00
           4
  0.5776940E+01 -0.5776940E+01  0.5776940E+01   0.1000000E+01 -0.0000000E+00 -0.0000000E+00
  0.5776940E+01 -0.5776940E+01 -0.5776940E+01   0.1000000E+01 -0.0000000E+00 -0.0000000E+00
  0.5776940E+01  0.5776940E+01 -0.5776940E+01   0.1000000E+01 -0.0000000E+00 -0.0000000E+00
  0.5776940E+01  0.5776940E+01  0.5776940E+01   0.1000000E+01 -0.0000000E+00 -0.0000000E+00
 WIGNER-SEITZ-PRIMCELL_END
 WIGNER-SEITZ-CONVCELL
           4
 -0.5776940E+01 -0.5776940E+01  0.5776940E+01  -0.1000000E+01  0.0000000E+00  0.0000000E+00
 -0.5776940E+01  0.5776940E+01  0.5776940E+01  -0.1000000E+01  0.0000000E+00  0.0000000E+00
 -0.5776940E+01  0.5776940E+01 -0.5776940E+01  -0.1000000E+01  0.0000000E+00  0.0000000E+00
 -0.5776940E+01 -0.5776940E+01 -0.5776940E+01  -0.1000000E+01  0.0000000E+00  0.0000000E+00
           4
 -0.5776940E+01 -0.5776940E+01 -0.5776940E+01  -0.0000000E+00 -0.1000000E+01 -0.0000000E+00
  0.5776940E+01 -0.5776940E+01 -0.5776940E+01  -0.0000000E+00 -0.1000000E+01 -0.0000000E+00
  0.5776940E+01 -0.5776940E+01  0.5776940E+01  -0.0000000E+00 -0.1000000E+01 -0.0000000E+00
 -0.5776940E+01 -0.5776940E+01  0.5776940E+01  -0.0000000E+00 -0.1000000E+01 -0.0000000E+00
           4
 -0.5776940E+01  0.5776940E+01 -0.5776940E+01   0.0000000E+00  0.0000000E+00 -0.1000000E+01
  0.5776940E+01  0.5776940E+01 -0.5776940E+01   0.0000000E+00  0.0000000E+00 -0.1000000E+01
  0.5776940E+01 -0.5776940E+01 -0.5776940E+01   0.0000000E+00  0.0000000E+00 -0.1000000E+01
 -0.5776940E+01 -0.5776940E+01 -0.5776940E+01   0.0000000E+00  0.0000000E+00 -0.1000000E+01
           4
  0.5776940E+01 -0.5776940E+01  0.5776940E+01  -0.0000000E+00 -0.0000000E+00  0.1000000E+01
  0.5776940E+01  0.5776940E+01  0.5776940E+01  -0.0000000E+00 -0.0000000E+00  0.1000000E+01
 -0.5776940E+01  0.5776940E+01  0.5776940E+01  -0.0000000E+00 -0.0000000E+00  0.1000000E+01
 -0.5776940E+01 -0.5776940E+01  0.5776940E+01  -0.0000000E+00 -0.0000000E+00  0.1000000E+01
           4
 -0.5776940E+01  0.5776940E+01  0.5776940E+01   0.0000000E+00  0.1000000E+01  0.0000000E+00
  0.5776940E+01  0.5776940E+01  0.5776940E+01   0.0000000E+00  0.1000000E+01  0.0000000E+00
  0.5776940E+01  0.5776940E+01 -0.5776940E+01   0.0000000E+00  0.1000000E+01  0.0000000E+00
 -0.5776940E+01  0.5776940E+01 -0.5776940E+01   0.0000000E+00  0.1000000E+01  0.0000000E+00
           4
  0.5776940E+01 -0.5776940E+01  0.5776940E+01   0.1000000E+01 -0.0000000E+00 -0.0000000E+00
  0.5776940E+01 -0.5776940E+01 -0.5776940E+01   0.1000000E+01 -0.0000000E+00 -0.0000000E+00
  0.5776940E+01  0.5776940E+01 -0.5776940E+01   0.1000000E+01 -0.0000000E+00 -0.0000000E+00
  0.5776940E+01  0.5776940E+01  0.5776940E+01   0.1000000E+01 -0.0000000E+00 -0.0000000E+00
 WIGNER-SEITZ-CONVCELL_END
 BRILLOUIN-ZONE-PRIMCELL
           4
 -0.4327550E-01 -0.4327550E-01  0.4327550E-01  -0.1000000E+01  0.0000000E+00  0.0000000E+00
 -0.4327550E-01  0.4327550E-01  0.4327550E-01  -0.1000000E+01  0.0000000E+00  0.0000000E+00
 -0.4327550E-01  0.4327550E-01 -0.4327550E-01  -0.1000000E+01  0.0000000E+00  0.0000000E+00
 -0.4327550E-01 -0.4327550E-01 -0.4327550E-01  -0.1000000E+01  0.0000000E+00  0.0000000E+00
           4
 -0.4327550E-01 -0.4327550E-01 -0.4327550E-01  -0.0000000E+00 -0.1000000E+01 -0.0000000E+00
  0.4327550E-01 -0.4327550E-01 -0.4327550E-01  -0.0000000E+00 -0.1000000E+01 -0.0000000E+00
  0.4327550E-01 -0.4327550E-01  0.4327550E-01  -0.0000000E+00 -0.1000000E+01 -0.0000000E+00
 -0.4327550E-01 -0.4327550E-01  0.4327550E-01  -0.0000000E+00 -0.1000000E+01 -0.0000000E+00
           4
 -0.4327550E-01  0.4327550E-01 -0.4327550E-01   0.0000000E+00  0.0000000E+00 -0.1000000E+01
  0.4327550E-01  0.4327550E-01 -0.4327550E-01   0.0000000E+00  0.0000000E+00 -0.1000000E+01
  0.4327550E-01 -0.4327550E-01 -0.4327550E-01   0.0000000E+00  0.0000000E+00 -0.1000000E+01
 -0.4327550E-01 -0.4327550E-01 -0.4327550E-01   0.0000000E+00  0.0000000E+00 -0.1000000E+01
           4
  0.4327550E-01 -0.4327550E-01  0.4327550E-01  -0.0000000E+00 -0.0000000E+00  0.1000000E+01
  0.4327550E-01  0.4327550E-01  0.4327550E-01  -0.0000000E+00 -0.0000000E+00  0.1000000E+01
 -0.4327550E-01  0.4327550E-01  0.4327550E-01  -0.0000000E+00 -0.0000000E+00  0.1000000E+01
 -0.4327550E-01 -0.4327550E-01  0.4327550E-01  -0.0000000E+00 -0.0000000E+00  0.1000000E+01
           4
 -0.4327550E-01  0.4327550E-01  0.4327550E-01   0.0000000E+00  0.1000000E+01  0.0000000E+00
  0.4327550E-01  0.4327550E-01  0.4327550E-01   0.0000000E+00  0.1000000E+01  0.0000000E+00
  0.4327550E-01  0.4327550E-01 -0.4327550E-01   0.0000000E+00  0.1000000E+01  0.0000000E+00
 -0.4327550E-01  0.4327550E-01 -0.4327550E-01   0.0000000E+00  0.1000000E+01  0.0000000E+00
           4
  0.4327550E-01 -0.4327550E-01  0.4327550E-01   0.1000000E+01 -0.0000000E+00 -0.0000000E+00
  0.4327550E-01 -0.4327550E-01 -0.4327550E-01   0.1000000E+01 -0.0000000E+00 -0.0000000E+00
  0.4327550E-01  0.4327550E-01 -0.4327550E-01   0.1000000E+01 -0.0000000E+00 -0.0000000E+00
  0.4327550E-01  0.4327550E-01  0.4327550E-01   0.1000000E+01 -0.0000000E+00 -0.0000000E+00
 BRILLOUIN-ZONE-PRIMCELL_END
 BRILLOUIN-ZONE-CONVCELL
           4
 -0.4327550E-01 -0.4327550E-01  0.4327550E-01  -0.1000000E+01  0.0000000E+00  0.0000000E+00
 -0.4327550E-01  0.4327550E-01  0.4327550E-01  -0.1000000E+01  0.0000000E+00  0.0000000E+00
 -0.4327550E-01  0.4327550E-01 -0.4327550E-01  -0.1000000E+01  0.0000000E+00  0.0000000E+00
 -0.4327550E-01 -0.4327550E-01 -0.4327550E-01  -0.1000000E+01  0.0000000E+00  0.0000000E+00
           4
 -0.4327550E-01 -0.4327550E-01 -0.4327550E-01  -0.0000000E+00 -0.1000000E+01 -0.0000000E+00
  0.4327550E-01 -0.4327550E-01 -0.4327550E-01  -0.0000000E+00 -0.1000000E+01 -0.0000000E+00
  0.4327550E-01 -0.4327550E-01  0.4327550E-01  -0.0000000E+00 -0.1000000E+01 -0.0000000E+00
 -0.4327550E-01 -0.4327550E-01  0.4327550E-01  -0.0000000E+00 -0.1000000E+01 -0.0000000E+00
           4
 -0.4327550E-01  0.4327550E-01 -0.4327550E-01   0.0000000E+00  0.0000000E+00 -0.1000000E+01
  0.4327550E-01  0.4327550E-01 -0.4327550E-01   0.0000000E+00  0.0000000E+00 -0.1000000E+01
  0.4327550E-01 -0.4327550E-01 -0.4327550E-01   0.0000000E+00  0.0000000E+00 -0.1000000E+01
 -0.4327550E-01 -0.4327550E-01 -0.4327550E-01   0.0000000E+00  0.0000000E+00 -0.1000000E+01
           4
  0.4327550E-01 -0.4327550E-01  0.4327550E-01  -0.0000000E+00 -0.0000000E+00  0.1000000E+01
  0.4327550E-01  0.4327550E-01  0.4327550E-01  -0.0000000E+00 -0.0000000E+00  0.1000000E+01
 -0.4327550E-01  0.4327550E-01  0.4327550E-01  -0.0000000E+00 -0.0000000E+00  0.1000000E+01
 -0.4327550E-01 -0.4327550E-01  0.4327550E-01  -0.0000000E+00 -0.0000000E+00  0.1000000E+01
           4
 -0.4327550E-01  0.4327550E-01  0.4327550E-01   0.0000000E+00  0.1000000E+01  0.0000000E+00
  0.4327550E-01  0.4327550E-01  0.4327550E-01   0.0000000E+00  0.1000000E+01  0.0000000E+00
  0.4327550E-01  0.4327550E-01 -0.4327550E-01   0.0000000E+00  0.1000000E+01  0.0000000E+00
 -0.4327550E-01  0.4327550E-01 -0.4327550E-01   0.0000000E+00  0.1000000E+01  0.0000000E+00
           4
  0.4327550E-01 -0.4327550E-01  0.4327550E-01   0.1000000E+01 -0.0000000E+00 -0.0000000E+00
  0.4327550E-01 -0.4327550E-01 -0.4327550E-01   0.1000000E+01 -0.0000000E+00 -0.0000000E+00
  0.4327550E-01  0.4327550E-01 -0.4327550E-01   0.1000000E+01 -0.0000000E+00 -0.0000000E+00
  0.4327550E-01  0.4327550E-01  0.4327550E-01   0.1000000E+01 -0.0000000E+00 -0.0000000E+00
 BRILLOUIN-ZONE-CONVCELL_END
 ATOMS
   79    0.0000000000    0.0000000000    0.0000000000    0.0000000000    0.0000000000    0.0000000000
   32    5.7769414380    5.7769414380    0.0000000000    0.0000000000    0.0000000000    0.0000000000
   32    5.7769414380    0.0000000000    5.7769414380    0.0000000000    0.0000000000    0.0000000000
   32    0.0000000000    5.7769414380    5.7769414380    0.0000000000    0.0000000000    0.0000000000
   32    8.6666655110    8.6666655110    5.7775794090    0.0000168700    0.0000168700    0.0000508900
   32    2.8872173660    2.8872173660    5.7775794090   -0.0000168700   -0.0000168700    0.0000508900
   32    0.0083585400    8.6651286830    8.6651286830   -0.0000632000   -0.0000498200   -0.0000498200
   32    0.0083585400    2.8887541940    2.8887541940   -0.0000632000    0.0000498200    0.0000498200
   32    5.7763034680    8.6666655110    2.8872173660   -0.0000508900    0.0000168700   -0.0000168700
   32    5.7763034680    2.8872173660    8.6666655110   -0.0000508900   -0.0000168700    0.0000168700
   32    5.7775678550    8.6666655110    8.6666655110    0.0000508900    0.0000168700    0.0000168700
   32    5.7775678550    2.8872173660    2.8872173660    0.0000508900   -0.0000168700   -0.0000168700
   32    8.6651286830    8.6651286830    0.0083700940   -0.0000498200   -0.0000498200   -0.0000632000
   32    8.6666655110    2.8872173660    5.7763150220    0.0000168700   -0.0000168700   -0.0000508900
   32    2.8872173660    8.6666655110    5.7763150220   -0.0000168700    0.0000168700   -0.0000508900
   32    2.8887541940    2.8887541940    0.0083700940    0.0000498200    0.0000498200   -0.0000632000
   32    8.6666655110    5.7775678550    8.6666655110    0.0000168700    0.0000508900    0.0000168700
   32    2.8872173660    5.7775678550    2.8872173660   -0.0000168700    0.0000508900   -0.0000168700
   32    8.6651286830    0.0083700940    8.6651286830   -0.0000498200   -0.0000632000   -0.0000498200
   32    8.6666655110    5.7763150220    2.8872173660    0.0000168700   -0.0000508900   -0.0000168700
   32    2.8887541940    0.0083700940    2.8887541940    0.0000498200   -0.0000632000    0.0000498200
   32    2.8872173660    5.7763150220    8.6666655110   -0.0000168700   -0.0000508900    0.0000168700
   32    5.7769414380    5.7769414380    5.7769414380    0.0000000000   -0.0000000000    0.0000000000
   32    5.7769414380    0.0000000000    0.0000000000    0.0000000000    0.0000000000    0.0000000000
   32    0.0000000000    5.7769414380    0.0000000000    0.0000000000    0.0000000000    0.0000000000
   32    0.0000000000    0.0000000000    5.7769414380    0.0000000000   -0.0000000000    0.0000000000
   32    1.4457832100    1.4457832100    1.4457832100    0.0000314900    0.0000314900    0.0000314900
   32    1.4489096560    7.2149055350    7.2149055350   -0.0000919700   -0.0000168700   -0.0000168700
   32    7.2149055350    1.4489096560    7.2149055350   -0.0000168700   -0.0000919700   -0.0000168700
   32    7.2149055350    7.2149055350    1.4489096560   -0.0000168700   -0.0000168700   -0.0000919700
   32    1.4489096560    4.3389773420    4.3389888950   -0.0000919700    0.0000168700    0.0000168700
   32    1.4457832100   10.1080996670   10.1081112210    0.0000314900   -0.0000314900   -0.0000314900
   32    7.2149055350    4.3389773420   10.1049847750   -0.0000168700    0.0000168700    0.0000919700
   32    7.2149055350   10.1049732210    4.3389888950   -0.0000168700    0.0000919700    0.0000168700
   32    4.3390004490    4.3390004490    1.4488981020    0.0000168700    0.0000168700   -0.0000919700
   32    4.3390004490   10.1049963290    7.2148939820    0.0000168700    0.0000919700   -0.0000168700
   32   10.1049963290    4.3390004490    7.2148939820    0.0000919700    0.0000168700   -0.0000168700
   32   10.1081227750   10.1081227750    1.4457716560   -0.0000314900   -0.0000314900    0.0000314900
   32    4.3389773420    1.4489096560    4.3389888950    0.0000168700   -0.0000919700    0.0000168700
   32    4.3389773420    7.2149055350   10.1049847750    0.0000168700   -0.0000168700    0.0000919700
   32   10.1080996670    1.4457832100   10.1081112210   -0.0000314900    0.0000314900   -0.0000314900
   32   10.1049732210    7.2149055350    4.3389888950    0.0000919700   -0.0000168700    0.0000168700
   32    4.3321214410    4.3321214410    7.2217614360   -0.0000116400   -0.0000116400    0.0000116400
   32    4.3265466690   10.1117523920    1.4421304850    0.0000025000    0.0000406300   -0.0000406300
   32   10.1117523920    4.3265466690    1.4421304850    0.0000406300    0.0000025000   -0.0000406300
   32   10.1117523920   10.1117523920    7.2273362080    0.0000406300    0.0000406300   -0.0000025000
   32    7.2217614360    4.3321214410    4.3321329950    0.0000116400   -0.0000116400   -0.0000116400
   32    7.2273362080   10.1117523920   10.1117639460   -0.0000025000    0.0000406300    0.0000406300
   32    1.4421304850    4.3265466690   10.1117639460   -0.0000406300    0.0000025000    0.0000406300
   32    1.4421304850   10.1117523920    4.3265582230   -0.0000406300    0.0000406300    0.0000025000
   32    7.2217614360    7.2217614360    7.2217614360    0.0000116400    0.0000116400    0.0000116400
   32    7.2273362080    1.4421304850    1.4421304850   -0.0000025000   -0.0000406300   -0.0000406300
   32    1.4421304850    7.2273362080    1.4421304850   -0.0000406300   -0.0000025000   -0.0000406300
   32    1.4421304850    1.4421304850    7.2273362080   -0.0000406300   -0.0000406300   -0.0000025000
   32    4.3321214410    7.2217614360    4.3321329950   -0.0000116400    0.0000116400   -0.0000116400
   32    4.3265466690    1.4421304850   10.1117639460    0.0000025000   -0.0000406300    0.0000406300
   32   10.1117523920    7.2273362080   10.1117639460    0.0000406300   -0.0000025000    0.0000406300
   32   10.1117523920    1.4421304850    4.3265582230    0.0000406300   -0.0000406300    0.0000025000
   79    0.0000000000    0.0000000000   11.5538806710    0.0000000000    0.0000000000    0.0000000000
   32    5.7769414380    5.7769414380   11.5538806710    0.0000000000    0.0000000000    0.0000000000
   32    8.6651286830    2.8887541940   11.5455243370   -0.0000498200    0.0000498200    0.0000632000
   32    2.8887541940    8.6651286830   11.5455243370    0.0000498200   -0.0000498200    0.0000632000
   32    5.7769414380    0.0000000000   11.5538806710    0.0000000000    0.0000000000    0.0000000000
   32    0.0000000000    5.7769414380   11.5538806710    0.0000000000    0.0000000000    0.0000000000
   79    0.0000000000   11.5538806710    0.0000000000    0.0000000000    0.0000000000    0.0000000000
   32    5.7769414380   11.5538806710    5.7769414380    0.0000000000    0.0000000000    0.0000000000
   32    8.6651286830   11.5455127830    2.8887541940   -0.0000498200    0.0000632000    0.0000498200
   32    2.8887541940   11.5455127830    8.6651286830    0.0000498200    0.0000632000   -0.0000498200
   32    5.7769414380   11.5538806710    0.0000000000    0.0000000000    0.0000000000    0.0000000000
   32    0.0000000000   11.5538806710    5.7769414380    0.0000000000   -0.0000000000    0.0000000000
   79    0.0000000000   11.5538806710   11.5538806710    0.0000000000    0.0000000000    0.0000000000
   32    5.7769414380   11.5538806710   11.5538806710    0.0000000000    0.0000000000    0.0000000000
   79   11.5538806710    0.0000000000    0.0000000000    0.0000000000    0.0000000000    0.0000000000
   32   11.5538806710    5.7769414380    5.7769414380    0.0000000000    0.0000000000    0.0000000000
   32   11.5455127830    8.6651286830    2.8887541940    0.0000632000   -0.0000498200    0.0000498200
   32   11.5455127830    2.8887541940    8.6651286830    0.0000632000    0.0000498200   -0.0000498200
   32   11.5538806710    5.7769414380    0.0000000000    0.0000000000    0.0000000000    0.0000000000
   32   11.5538806710    0.0000000000    5.7769414380    0.0000000000   -0.0000000000    0.0000000000
   79   11.5538806710    0.0000000000   11.5538806710    0.0000000000    0.0000000000    0.0000000000
   32   11.5538806710    5.7769414380   11.5538806710    0.0000000000    0.0000000000    0.0000000000
   79   11.5538806710   11.5538806710    0.0000000000    0.0000000000    0.0000000000    0.0000000000
   32   11.5538806710   11.5538806710    5.7769414380    0.0000000000   -0.0000000000    0.0000000000
   79   11.5538806710   11.5538806710   11.5538806710    0.0000000000    0.0000000000    0.0000000000
 FRAMES
1      0.0000000000    0.0000000000    0.0000000000     11.5538806710    0.0000000000    0.0000000000
1      0.0000000000    0.0000000000    0.0000000000      0.0000000000   11.5538806710    0.0000000000
1      0.0000000000    0.0000000000    0.0000000000      0.0000000000    0.0000000000   11.5538806710
1      0.0000000000    0.0000000000   11.5538806710     11.5538806710    0.0000000000   11.5538806710
1      0.0000000000    0.0000000000   11.5538806710      0.0000000000   11.5538806710   11.5538806710
1      0.0000000000   11.5538806710    0.0000000000     11.5538806710   11.5538806710    0.0000000000
1      0.0000000000   11.5538806710    0.0000000000      0.0000000000   11.5538806710   11.5538806710
1      0.0000000000   11.5538806710   11.5538806710     11.5538806710   11.5538806710   11.5538806710