 *******************************************************************************
 ** Site#: 29054        For non-commercial use only    Version 18.021W 64BITS **
 *******************************************************************************
 ** Cite this program as: MOPAC2016, Version: 18.021W, James J. P. Stewart,   **
 ** Stewart Computational Chemistry, web: HTTP://OpenMOPAC.net. Days left: 364**
 *******************************************************************************
 **                                                                           **
 **                                MOPAC2016                                  **
 **                                                                           **
 *******************************************************************************

                              PM7 CALCULATION RESULTS


 *******************************************************************************
 *  CALCULATION DONE:                                Mon Jan 22 13:06:06 2018  *
 *  SYMMETRY   - SYMMETRY CONDITIONS TO BE IMPOSED
 *
 *
 *
 *                 CHARGE ON SYSTEM =    +1
 *
 *
 *
 *  EPS= 78.40 - USE ANDREAS KLAMT'S COSMO IMPLICIT SOLVATION MODEL
 *  T=         - A TIME OF 172800.0 SECONDS REQUESTED
 *  DUMP=N     - RESTART FILE WRITTEN EVERY  7200.000 SECONDS
 *******************************************************************************



                    PARAMETER DEPENDENCE DATA

        REFERENCE ATOM      FUNCTION NO.    DEPENDENT ATOM(S)
            2                  1               3

             DESCRIPTIONS OF THE FUNCTIONS USED
   1      BOND LENGTH    IS SET EQUAL TO THE REFERENCE BOND LENGTH   
 
eps=78.4 charge=1 symmetry
 NH2Cl + pyridinium => [H3NCl](+) + pyridine
 Locate approximate transition state
  ATOM               CHEMICAL                 BOND LENGTH      BOND ANGLE     TWIST ANGLE 
 NUMBER               SYMBOL                  (ANGSTROMS)      (DEGREES)       (DEGREES) 
   (I)                                           NA:I           NB:NA:I       NC:NB:NA:I       NA    NB    NC 
     1       H(HETATM    1  H   NH3 A   1)    0.00000000       0.0000000       0.0000000   
     2       N(HETATM    2  N   NH3 A   1)    1.53021664  *    0.0000000       0.0000000        1     0     0
     3       N(HETATM    3  N   HET B   2)    1.53021664     170.8150733  *    0.0000000  *     1     2     0
     4       C(HETATM    4  C1  HET B   2)    1.34867757  *  120.8712311  *  -67.3314371  *     3     1     2
     5       C(HETATM    5  C2  HET B   2)    1.39896614  *  122.2159299  * -179.5911570  *     4     3     1
     6       H(HETATM    6  H1  HET D   2)    2.16131745  *  144.8658267  *    0.0297940  *     5     4     3
     7       H(HETATM    7  H2  HET D   2)    2.52532252  *   92.8670033  *   -0.0311131  *     6     5     4
     8       H(HETATM    8  H3  HET D   2)    2.08064765  *   92.0496122  * -179.7702260  *     3     1     4
     9       H(HETATM    9  H1  HET B   2)    1.09854715  *  116.0733742  *  179.9825979  *     4     3     5
    10       H(HETATM   10  H2  HET B   2)    1.09027905  *  120.1247618  *  179.9517225  *     5     4     6
    11       H(HETATM   11 1H   NH3 A   1)    1.03548004  *  110.8403654  *  171.1141560  *     2     1     3
    12       H(HETATM   12 2H   NH3 A   1)    1.03276503  *  111.9945247  * -123.5983927  *     2     1    11
    13      Cl(HETATM   13 3CL  NH3 A   1)    1.76388397  *  107.2436362  * -118.2394970  *     2     1    12
    14       C(HETATM   14  C1  HET D   2)    1.09551518  *   33.9408989  *   -0.0165590  *     6     5     7
    15       C(HETATM   15  C2  HET D   2)    1.09076974  *   58.7330587  *   -0.0161819  *     7     6     5
    16       C(HETATM   16  C3  HET D   2)    1.09871803  *   35.5952874  *  179.7028079  *     8     3     1
 

 General Reference for PM7:
 "Optimization of Parameters for Semiempirical Methods VI: More Modifications to the 
 NDDO Approximations and Re-optimization of Parameters", J. J. P. Stewart, J. Mol. Mod., 1:32, 19 (2013)
 http://www.springerlink.com/openurl.asp?genre=article&id=doi:10.1007/s00894-012-1667-x

           Empirical Formula: C5 H8 N2 Cl  =    16 atoms



      MOLECULAR POINT GROUP   :   C1  


      RHF CALCULATION, NO. OF DOUBLY OCCUPIED LEVELS = 22


          Geometry optimization using EF

          DIAGONAL MATRIX USED AS START HESSIAN

 CYCLE:     1 TIME:   0.062 TIME LEFT:  2.00D  GRAD.:   106.680 HEAT:  156.1462
 CYCLE:     2 TIME:   0.031 TIME LEFT:  2.00D  GRAD.:   588.042 HEAT:  153.7938
 CYCLE:     3 TIME:   0.031 TIME LEFT:  2.00D  GRAD.:   413.508 HEAT:  146.9334
 CYCLE:     4 TIME:   0.031 TIME LEFT:  2.00D  GRAD.:   189.123 HEAT:  141.0727
 CYCLE:     5 TIME:   0.062 TIME LEFT:  2.00D  GRAD.:   173.510 HEAT:  140.2381
 CYCLE:     6 TIME:   0.016 TIME LEFT:  2.00D  GRAD.:    43.219 HEAT:  139.6319
 CYCLE:     7 TIME:   0.031 TIME LEFT:  2.00D  GRAD.:    31.888 HEAT:  139.4589
 CYCLE:     8 TIME:   0.016 TIME LEFT:  2.00D  GRAD.:    16.172 HEAT:  139.3534
 CYCLE:     9 TIME:   0.078 TIME LEFT:  2.00D  GRAD.:     6.707 HEAT:  139.3427
 CYCLE:    10 TIME:   0.094 TIME LEFT:  2.00D  GRAD.:     6.208 HEAT:  139.3399
 CYCLE:    11 TIME:   0.016 TIME LEFT:  2.00D  GRAD.:     5.877 HEAT:  139.3813
 CYCLE:    12 TIME:   0.016 TIME LEFT:  2.00D  GRAD.:     5.619 HEAT:  139.3817
 CYCLE:    13 TIME:   0.016 TIME LEFT:  2.00D  GRAD.:     5.356 HEAT:  139.3792
 CYCLE:    14 TIME:   0.016 TIME LEFT:  2.00D  GRAD.:     5.026 HEAT:  139.3714
 CYCLE:    15 TIME:   0.031 TIME LEFT:  2.00D  GRAD.:     4.607 HEAT:  139.3667
 CYCLE:    16 TIME:   0.016 TIME LEFT:  2.00D  GRAD.:     4.087 HEAT:  139.3663
 CYCLE:    17 TIME:   0.094 TIME LEFT:  2.00D  GRAD.:    17.322 HEAT:  139.3190
 CYCLE:    18 TIME:   0.031 TIME LEFT:  2.00D  GRAD.:     7.641 HEAT:  139.3093
 CYCLE:    19 TIME:   0.016 TIME LEFT:  2.00D  GRAD.:     5.858 HEAT:  139.3016
 CYCLE:    20 TIME:   0.016 TIME LEFT:  2.00D  GRAD.:     3.378 HEAT:  139.2980
 CYCLE:    21 TIME:   0.016 TIME LEFT:  2.00D  GRAD.:     2.587 HEAT:  139.2988
 CYCLE:    22 TIME:   0.016 TIME LEFT:  2.00D  GRAD.:    18.614 HEAT:  139.2869
 CYCLE:    23 TIME:   0.016 TIME LEFT:  2.00D  GRAD.:     8.897 HEAT:  139.2124
 CYCLE:    24 TIME:   0.031 TIME LEFT:  2.00D  GRAD.:     3.683 HEAT:  139.1846
 CYCLE:    25 TIME:   0.016 TIME LEFT:  2.00D  GRAD.:     4.698 HEAT:  139.1781
 CYCLE:    26 TIME:   0.047 TIME LEFT:  2.00D  GRAD.:     2.314 HEAT:  139.1780
 CYCLE:    27 TIME:   0.125 TIME LEFT:  2.00D  GRAD.:     1.927 HEAT:  139.1771
 CYCLE:    28 TIME:   0.125 TIME LEFT:  2.00D  GRAD.:     1.753 HEAT:  139.1777
 CYCLE:    29 TIME:   0.156 TIME LEFT:  2.00D  GRAD.:     1.681 HEAT:  139.1789

     TRUST RADIUS NOW LESS THAN  0.00010 OPTIMIZATION TERMINATING
      THE GEOMETRY MAY NOT BE COMPLETELY OPTIMIZED
      (TO CONTINUE, ADD 'LET DDMIN=0.0' TO THE KEYWORD LINE)

 -------------------------------------------------------------------------------
 eps=78.4 charge=1 symmetry
 NH2Cl + pyridinium => [H3NCl](+) + pyridine
 Locate approximate transition state


     GEOMETRY OPTIMISED USING EIGENVECTOR FOLLOWING (EF).     
     SCF FIELD WAS ACHIEVED                                   


                              PM7 CALCULATION
                                                       MOPAC2016 (Version: 18.021W)
                                                       Mon Jan 22 13:06:07 2018
                                                       No. of days remaining = 364




          FINAL HEAT OF FORMATION =        139.17714 KCAL/MOL =     582.31716 KJ/MOL
          VAN DER WAALS AREA      =        168.20 SQUARE ANGSTROMS


          TOTAL ENERGY            =      -1355.50043 EV
          ELECTRONIC ENERGY       =      -1578.40866 EV  POINT GROUP:     C1  
          CORE-CORE REPULSION     =        222.90824 EV
          DIELECTRIC ENERGY       =         -2.41026 EV
          COSMO AREA              =        168.20 SQUARE ANGSTROMS
          COSMO VOLUME            =        160.05 CUBIC ANGSTROMS

          GRADIENT NORM           =          1.92659
          IONIZATION POTENTIAL    =         10.766048 EV
          HOMO LUMO ENERGIES (EV) =        -10.766 -1.072
          NO. OF FILLED LEVELS    =         22
          MOLECULAR WEIGHT        =        131.5846

          MOLECULAR DIMENSIONS (Angstroms)

            Atom       Atom       Distance
           Cl    13    H     6     7.17173
            H     9    H     7     4.62634
            H    10    H    11     1.92963


          SCF CALCULATIONS        =         80
 
          WALL-CLOCK TIME         =          1.453 SECONDS
          COMPUTATION TIME        =          5.616 SECONDS




  ATOM               CHEMICAL                 BOND LENGTH      BOND ANGLE     TWIST ANGLE 
 NUMBER               SYMBOL                  (ANGSTROMS)      (DEGREES)       (DEGREES) 
   (I)                                           NA:I           NB:NA:I       NC:NB:NA:I       NA    NB    NC 
     1       H(HETATM    1  H   NH3 A   1)    0.00000000       0.0000000       0.0000000   
     2       N(HETATM    2  N   NH3 A   1)    1.31164792  *    0.0000000       0.0000000        1     0     0
     3       N(HETATM    3  N   HET B   2)    1.31164792     174.4149513  *   -0.0000000  *     1     2     0
     4       C(HETATM    4  C1  HET B   2)    1.35354033  *  119.9119524  *  -67.7174391  *     3     1     2
     5       C(HETATM    5  C2  HET B   2)    1.39637766  *  121.0851967  * -179.7795786  *     4     3     1
     6       H(HETATM    6  H1  HET D   2)    2.16485038  *  145.1009769  *    0.0568438  *     5     4     3
     7       H(HETATM    7  H2  HET D   2)    2.51080492  *   93.1781544  *    0.0083583  *     6     5     4
     8       H(HETATM    8  H3  HET D   2)    2.09928677  *   92.0601733  * -179.6825776  *     3     1     4
     9       H(HETATM    9  H1  HET B   2)    1.10151939  *  117.0540340  *  179.9629768  *     4     3     5
    10       H(HETATM   10  H2  HET B   2)    1.09316995  *  119.8099619  *  179.9551086  *     5     4     6
    11       H(HETATM   11 1H   NH3 A   1)    1.02763837  *  112.1900284  *  172.6088093  *     2     1     3
    12       H(HETATM   12 2H   NH3 A   1)    1.02612335  *  113.2323354  * -123.9609060  *     2     1    11
    13      Cl(HETATM   13 3CL  NH3 A   1)    1.75273354  *  107.4369479  * -118.1827754  *     2     1    12
    14       C(HETATM   14  C1  HET D   2)    1.09559703  *   33.7653653  *   -0.0517363  *     6     5     7
    15       C(HETATM   15  C2  HET D   2)    1.09283822  *   59.2659702  *   -0.0438695  *     7     6     5
    16       C(HETATM   16  C3  HET D   2)    1.10162986  *   35.0362720  *  179.9474285  *     8     3     1

                             CARTESIAN COORDINATES

   1    H        0.000000000     0.000000000     0.000000000
   2    N        1.311647920     0.000000000     0.000000000
   3    N       -1.305421305     0.127653763     0.000000000
   4    C       -1.933889718     0.636094296     1.085627514
   5    C       -3.322698589     0.778519597     1.113832529
   6    H       -5.159863049     0.491378293     0.005250647
   7    H       -3.969794312    -0.451011986    -1.994693926
   8    H       -1.458994732    -0.667398288    -1.936830498
   9    H       -1.301905374     0.929033647     1.938931261
  10    H       -3.808686572     1.191847801     2.001523925
  11    H        1.699766013    -0.943621408     0.122407496
  12    H        1.716413121     0.622971265     0.707814289
  13   Cl        1.836865188     0.584660113    -1.566650641
  14    C       -4.069130808     0.388272173     0.002978135
  15    C       -3.411336923    -0.135518435    -1.109886301
  16    C       -2.021241191    -0.256113869    -1.083418296


           Empirical Formula: C5 H8 N2 Cl  =    16 atoms



      MOLECULAR POINT GROUP   :   C1  


                  EIGENVALUES  
 -37.80495 -36.16278 -29.24296 -27.08863 -25.26021 -22.97886 -22.66105 -19.58913
 -17.88848 -17.18957 -16.99204 -16.41910 -15.79248 -15.30587 -15.16511 -14.01162
 -13.12044 -12.25667 -11.79195 -11.56425 -11.26302 -10.76605  -1.07192  -0.90102
  -0.71241   1.64069   2.01189   3.48638   3.63997   3.98527   4.05684   4.53425
   4.56388   4.91292   5.18445   5.37022   5.47330   5.51163   5.66006   5.71229
  67.28069  67.39239  67.49758  68.14584  68.15402


              NET ATOMIC CHARGES AND DIPOLE CONTRIBUTIONS

  ATOM NO.                 TYPE                        CHARGE      No. of ELECS.   s-Pop       p-Pop       d-Pop       
    1          H(HETATM    1  H   NH3 A   1)           0.419246        0.5808     0.58075
    2          N(HETATM    2  N   NH3 A   1)          -0.434849        5.4348     1.61874     3.81611
    3          N(HETATM    3  N   HET B   2)          -0.364762        5.3648     1.63036     3.73440
    4          C(HETATM    4  C1  HET B   2)           0.065884        3.9341     1.10446     2.82966
    5          C(HETATM    5  C2  HET B   2)          -0.213206        4.2132     1.09241     3.12079
    6          H(HETATM    6  H1  HET D   2)           0.189941        0.8101     0.81006
    7          H(HETATM    7  H2  HET D   2)           0.197710        0.8023     0.80229
    8          H(HETATM    8  H3  HET D   2)           0.203073        0.7969     0.79693
    9          H(HETATM    9  H1  HET B   2)           0.205504        0.7945     0.79450
   10          H(HETATM   10  H2  HET B   2)           0.198195        0.8018     0.80181
   11          H(HETATM   11 1H   NH3 A   1)           0.329030        0.6710     0.67097
   12          H(HETATM   12 2H   NH3 A   1)           0.329025        0.6710     0.67098
   13         Cl(HETATM   13 3CL  NH3 A   1)           0.069605        6.9304     1.98415     4.93647     0.00977
   14          C(HETATM   14  C1  HET D   2)          -0.040403        4.0404     1.09922     2.94118
   15          C(HETATM   15  C2  HET D   2)          -0.214265        4.2143     1.09206     3.12220
   16          C(HETATM   16  C3  HET D   2)           0.060272        3.9397     1.10321     2.83652

          NET CHARGE ON RESIDUES

      Residue         Charge  Anion or
                              Cation?
      NH3 A   1       +0.712  CATION
      HET B   2       -0.108
      HET D   2       +0.396
 


 DIPOLE           X         Y         Z       TOTAL
 POINT-CHG.     1.797    -1.204     2.852     3.580
 HYBRID         0.436    -0.164     0.406     0.618
 SUM            2.234    -1.368     3.259     4.181


          ATOMIC ORBITAL ELECTRON POPULATIONS

                   Atom                  s        px        py        pz      x^2-y^2     xz        z^2       yz        xy
   H(HETATM    1  H   NH3 A   1)   0.58075
   N(HETATM    2  N   NH3 A   1)   1.61874   1.45191   1.26178   1.10242
   N(HETATM    3  N   HET B   2)   1.63036   1.35412   1.25574   1.12454
   C(HETATM    4  C1  HET B   2)   1.10446   0.99658   0.89404   0.93904
   C(HETATM    5  C2  HET B   2)   1.09241   1.00174   1.03842   1.08064
   H(HETATM    6  H1  HET D   2)   0.81006
   H(HETATM    7  H2  HET D   2)   0.80229
   H(HETATM    8  H3  HET D   2)   0.79693
   H(HETATM    9  H1  HET B   2)   0.79450
   H(HETATM   10  H2  HET B   2)   0.80181
   H(HETATM   11 1H   NH3 A   1)   0.67097
   H(HETATM   12 2H   NH3 A   1)   0.67098
  Cl(HETATM   13 3CL  NH3 A   1)   1.98415   1.91263   1.87963   1.14421   0.00071   0.00249   0.00361   0.00249   0.00047
   C(HETATM   14  C1  HET D   2)   1.09922   1.09706   0.88877   0.95535
   C(HETATM   15  C2  HET D   2)   1.09206   1.00939   1.03235   1.08047
   C(HETATM   16  C3  HET D   2)   1.10321   0.98036   0.91494   0.94122
 *******************************************************************************
 ** Site#: 29054        For non-commercial use only    Version 18.021W 64BITS **
 *******************************************************************************
 ** Cite this program as: MOPAC2016, Version: 18.021W, James J. P. Stewart,   **
 ** Stewart Computational Chemistry, web: HTTP://OpenMOPAC.net. Days left: 364**
 *******************************************************************************
 **                                                                           **
 **                                MOPAC2016                                  **
 **                                                                           **
 *******************************************************************************

                              PM7 CALCULATION RESULTS


 *******************************************************************************
 *  CALCULATION DONE:                                Mon Jan 22 13:06:07 2018  *
 *  OPT        - OPTIMIZE COORDINATES OF ALL ATOMS
 *
 *
 *
 *                 CHARGE ON SYSTEM =    +1
 *
 *
 *
 *  EPS= 78.40 - USE ANDREAS KLAMT'S COSMO IMPLICIT SOLVATION MODEL
 *  OLDGEO     - PREVIOUS GEOMETRY TO BE USED
 *  TS         - USE EF ROUTINE FOR TS SEARCH
 *  T=         - A TIME OF 172800.0 SECONDS REQUESTED
 *  DUMP=N     - RESTART FILE WRITTEN EVERY  7200.000 SECONDS
 *******************************************************************************
oldgeo opt eps=78.4 charge=1 ts
 NH2Cl + pyridinium => [H3NCl](+) + pyridine
 Refine transition state
  ATOM               CHEMICAL                 BOND LENGTH      BOND ANGLE     TWIST ANGLE 
 NUMBER               SYMBOL                  (ANGSTROMS)      (DEGREES)       (DEGREES) 
   (I)                                           NA:I           NB:NA:I       NC:NB:NA:I       NA    NB    NC 
     1       H(HETATM    1  H   NH3 A   1)    0.00000000  *    0.0000000  *    0.0000000  *
     2       N(HETATM    2  N   NH3 A   1)    1.31164792  *    0.0000000  *    0.0000000  *     1     0     0
     3       N(HETATM    3  N   HET B   2)    1.31164792  *  174.4149513  *   -0.0000000  *     1     2     0
     4       C(HETATM    4  C1  HET B   2)    1.35354033  *  119.9119524  *  -67.7174391  *     3     1     2
     5       C(HETATM    5  C2  HET B   2)    1.39637766  *  121.0851967  * -179.7795786  *     4     3     1
     6       H(HETATM    6  H1  HET D   2)    2.16485038  *  145.1009769  *    0.0568438  *     5     4     3
     7       H(HETATM    7  H2  HET D   2)    2.51080492  *   93.1781544  *    0.0083583  *     6     5     4
     8       H(HETATM    8  H3  HET D   2)    2.09928677  *   92.0601733  * -179.6825776  *     3     1     4
     9       H(HETATM    9  H1  HET B   2)    1.10151939  *  117.0540340  *  179.9629768  *     4     3     5
    10       H(HETATM   10  H2  HET B   2)    1.09316995  *  119.8099619  *  179.9551086  *     5     4     6
    11       H(HETATM   11 1H   NH3 A   1)    1.02763837  *  112.1900284  *  172.6088093  *     2     1     3
    12       H(HETATM   12 2H   NH3 A   1)    1.02612335  *  113.2323354  * -123.9609060  *     2     1    11
    13      Cl(HETATM   13 3CL  NH3 A   1)    1.75273354  *  107.4369479  * -118.1827754  *     2     1    12
    14       C(HETATM   14  C1  HET D   2)    1.09559703  *   33.7653653  *   -0.0517363  *     6     5     7
    15       C(HETATM   15  C2  HET D   2)    1.09283822  *   59.2659702  *   -0.0438695  *     7     6     5
    16       C(HETATM   16  C3  HET D   2)    1.10162986  *   35.0362720  *  179.9474285  *     8     3     1
 

 General Reference for PM7:
 "Optimization of Parameters for Semiempirical Methods VI: More Modifications to the 
 NDDO Approximations and Re-optimization of Parameters", J. J. P. Stewart, J. Mol. Mod., 1:32, 19 (2013)
 http://www.springerlink.com/openurl.asp?genre=article&id=doi:10.1007/s00894-012-1667-x

           Empirical Formula: C5 H8 N2 Cl  =    16 atoms



      MOLECULAR POINT GROUP   :   C1  


      RHF CALCULATION, NO. OF DOUBLY OCCUPIED LEVELS = 22


          Transition state refinement using EF

          HESSIAN CALCULATED NUMERICALLY

 CYCLE:     1 TIME:   0.887 TIME LEFT:  2.00D  GRAD.:     1.909 HEAT:  139.1771
 CYCLE:     2 TIME:   0.172 TIME LEFT:  2.00D  GRAD.:     1.733 HEAT:  139.1782
 CYCLE:     2 TIME:   0.016 TIME LEFT:  2.00D  GRAD.:     1.776 HEAT:  139.1780
 CYCLE:     3 TIME:   0.016 TIME LEFT:  2.00D  GRAD.:     1.771 HEAT:  139.1780
 CYCLE:     4 TIME:   0.016 TIME LEFT:  2.00D  GRAD.:     1.721 HEAT:  139.1781
 CYCLE:     5 TIME:   0.016 TIME LEFT:  2.00D  GRAD.:     1.711 HEAT:  139.1780
 CYCLE:     6 TIME:   0.031 TIME LEFT:  2.00D  GRAD.:     1.690 HEAT:  139.1792

     TRUST RADIUS NOW LESS THAN  0.00010 OPTIMIZATION TERMINATING
      THE GEOMETRY MAY NOT BE COMPLETELY OPTIMIZED
      (TO CONTINUE, ADD 'LET DDMIN=0.0' TO THE KEYWORD LINE)

 -------------------------------------------------------------------------------
 opt eps=78.4 charge=1 ts
 NH2Cl + pyridinium => [H3NCl](+) + pyridine
 Refine transition state


     GEOMETRY OPTIMISED USING EIGENVECTOR FOLLOWING (TS).     
     SCF FIELD WAS ACHIEVED                                   


                              PM7 CALCULATION
                                                       MOPAC2016 (Version: 18.021W)
                                                       Mon Jan 22 13:06:09 2018
                                                       No. of days remaining = 364




          FINAL HEAT OF FORMATION =        139.17916 KCAL/MOL =     582.32559 KJ/MOL
          VAN DER WAALS AREA      =        168.11 SQUARE ANGSTROMS


          TOTAL ENERGY            =      -1355.50033 EV
          ELECTRONIC ENERGY       =      -1578.94599 EV  POINT GROUP:     C1  
          CORE-CORE REPULSION     =        223.44566 EV
          DIELECTRIC ENERGY       =         -2.41012 EV
          COSMO AREA              =        168.11 SQUARE ANGSTROMS
          COSMO VOLUME            =        160.01 CUBIC ANGSTROMS

          GRADIENT NORM           =          1.61794
          IONIZATION POTENTIAL    =         10.765994 EV
          HOMO LUMO ENERGIES (EV) =        -10.766 -1.072
          NO. OF FILLED LEVELS    =         22
          MOLECULAR WEIGHT        =        131.5846

          MOLECULAR DIMENSIONS (Angstroms)

            Atom       Atom       Distance
           Cl    13    H     6     7.17164
            H     9    H     7     4.62629
            H    10    H    11     1.92989


          SCF CALCULATIONS        =         67
 
          WALL-CLOCK TIME         =          2.652 SECONDS
          COMPUTATION TIME        =         10.421 SECONDS




  ATOM               CHEMICAL                 BOND LENGTH      BOND ANGLE     TWIST ANGLE 
 NUMBER               SYMBOL                  (ANGSTROMS)      (DEGREES)       (DEGREES) 
   (I)                                           NA:I           NB:NA:I       NC:NB:NA:I       NA    NB    NC 
     1       H(HETATM    1  H   NH3 A   1)    0.00009576  *   -0.0003348  *   -0.0000377  *
     2       N(HETATM    2  N   NH3 A   1)    1.31162539  *    0.0015381  *    0.0029903  *     1     0     0
     3       N(HETATM    3  N   HET B   2)    1.31170243  *  174.4356711  *    0.0009933  *     1     2     0
     4       C(HETATM    4  C1  HET B   2)    1.35353981  *  119.9213969  *  -67.7283422  *     3     1     2
     5       C(HETATM    5  C2  HET B   2)    1.39633211  *  121.0884647  * -179.7794781  *     4     3     1
     6       H(HETATM    6  H1  HET D   2)    2.16482708  *  145.0989739  *    0.0550964  *     5     4     3
     7       H(HETATM    7  H2  HET D   2)    2.51076479  *   93.1755121  *    0.0078802  *     6     5     4
     8       H(HETATM    8  H3  HET D   2)    2.09918514  *   92.0489285  * -179.6835970  *     3     1     4
     9       H(HETATM    9  H1  HET B   2)    1.10153425  *  117.0473831  *  179.9632643  *     4     3     5
    10       H(HETATM   10  H2  HET B   2)    1.09318537  *  119.8120767  *  179.9550834  *     5     4     6
    11       H(HETATM   11 1H   NH3 A   1)    1.02764562  *  112.1841375  *  172.6295644  *     2     1     3
    12       H(HETATM   12 2H   NH3 A   1)    1.02612662  *  113.2257652  * -123.9624189  *     2     1    11
    13      Cl(HETATM   13 3CL  NH3 A   1)    1.75273536  *  107.4308845  * -118.1807798  *     2     1    12
    14       C(HETATM   14  C1  HET D   2)    1.09565863  *   33.7614326  *   -0.0528640  *     6     5     7
    15       C(HETATM   15  C2  HET D   2)    1.09287823  *   59.2616605  *   -0.0435667  *     7     6     5
    16       C(HETATM   16  C3  HET D   2)    1.10154490  *   35.0332665  *  179.9472407  *     8     3     1

                             CARTESIAN COORDINATES

   1    H        0.000095759    -0.000334785    -0.000037673
   2    N        1.311721145    -0.000334785    -0.000037673
   3    N       -1.305425873     0.126852176    -0.000037673
   4    C       -1.934294468     0.634836363     1.085571091
   5    C       -3.323118730     0.776691194     1.113637913
   6    H       -5.159974722     0.489016216     0.004728785
   7    H       -3.969124611    -0.452418913    -1.995150147
   8    H       -1.458256049    -0.667861308    -1.936955762
   9    H       -1.302466466     0.927868269     1.938978012
  10    H       -3.809422882     1.189639276     2.001352061
  11    H        1.699744142    -0.944046702     0.122033973
  12    H        1.716379507     0.622431367     0.708022899
  13   Cl        1.836761996     0.584926058    -1.566525180
  14    C       -4.069133682     0.386403343     0.002664225
  15    C       -3.411027303    -0.136836891    -1.110097494
  16    C       -2.020760694    -0.257010631    -1.083614444


           Empirical Formula: C5 H8 N2 Cl  =    16 atoms



      MOLECULAR POINT GROUP   :   C1  


                  EIGENVALUES  
 -37.80618 -36.16335 -29.24426 -27.08898 -25.26031 -22.97890 -22.66192 -19.58944
 -17.88918 -17.18999 -16.99208 -16.41924 -15.79280 -15.30668 -15.16513 -14.01174
 -13.12090 -12.25647 -11.79202 -11.56527 -11.26299 -10.76599  -1.07229  -0.90076
  -0.71284   1.64077   2.01182   3.48599   3.64025   3.98481   4.05662   4.53430
   4.56422   4.91285   5.18454   5.36993   5.47322   5.51126   5.65985   5.71188
  67.28033  67.39195  67.49712  68.14523  68.15340


              NET ATOMIC CHARGES AND DIPOLE CONTRIBUTIONS

  ATOM NO.                 TYPE                        CHARGE      No. of ELECS.   s-Pop       p-Pop       d-Pop       
    1          H(HETATM    1  H   NH3 A   1)           0.419226        0.5808     0.58077
    2          N(HETATM    2  N   NH3 A   1)          -0.434896        5.4349     1.61871     3.81618
    3          N(HETATM    3  N   HET B   2)          -0.364759        5.3648     1.63034     3.73442
    4          C(HETATM    4  C1  HET B   2)           0.065821        3.9342     1.10444     2.82974
    5          C(HETATM    5  C2  HET B   2)          -0.213142        4.2131     1.09238     3.12076
    6          H(HETATM    6  H1  HET D   2)           0.189964        0.8100     0.81004
    7          H(HETATM    7  H2  HET D   2)           0.197704        0.8023     0.80230
    8          H(HETATM    8  H3  HET D   2)           0.203063        0.7969     0.79694
    9          H(HETATM    9  H1  HET B   2)           0.205508        0.7945     0.79449
   10          H(HETATM   10  H2  HET B   2)           0.198206        0.8018     0.80179
   11          H(HETATM   11 1H   NH3 A   1)           0.329051        0.6709     0.67095
   12          H(HETATM   12 2H   NH3 A   1)           0.329053        0.6709     0.67095
   13         Cl(HETATM   13 3CL  NH3 A   1)           0.069661        6.9303     1.98415     4.93642     0.00977
   14          C(HETATM   14  C1  HET D   2)          -0.040483        4.0405     1.09917     2.94131
   15          C(HETATM   15  C2  HET D   2)          -0.214238        4.2142     1.09206     3.12217
   16          C(HETATM   16  C3  HET D   2)           0.060261        3.9397     1.10323     2.83651

          NET CHARGE ON RESIDUES

      Residue         Charge  Anion or
                              Cation?
      NH3 A   1       +0.712  CATION
      HET B   2       -0.108
      HET D   2       +0.396
 


 DIPOLE           X         Y         Z       TOTAL
 POINT-CHG.     1.798    -1.204     2.852     3.580
 HYBRID         0.436    -0.164     0.406     0.618
 SUM            2.235    -1.369     3.258     4.181


          ATOMIC ORBITAL ELECTRON POPULATIONS

                   Atom                  s        px        py        pz      x^2-y^2     xz        z^2       yz        xy
   H(HETATM    1  H   NH3 A   1)   0.58077
   N(HETATM    2  N   NH3 A   1)   1.61871   1.45197   1.26172   1.10250
   N(HETATM    3  N   HET B   2)   1.63034   1.35419   1.25572   1.12451
   C(HETATM    4  C1  HET B   2)   1.10444   0.99653   0.89413   0.93908
   C(HETATM    5  C2  HET B   2)   1.09238   1.00178   1.03834   1.08064
   H(HETATM    6  H1  HET D   2)   0.81004
   H(HETATM    7  H2  HET D   2)   0.80230
   H(HETATM    8  H3  HET D   2)   0.79694
   H(HETATM    9  H1  HET B   2)   0.79449
   H(HETATM   10  H2  HET B   2)   0.80179
   H(HETATM   11 1H   NH3 A   1)   0.67095
   H(HETATM   12 2H   NH3 A   1)   0.67095
  Cl(HETATM   13 3CL  NH3 A   1)   1.98415   1.91270   1.87940   1.14432   0.00071   0.00249   0.00360   0.00249   0.00047
   C(HETATM   14  C1  HET D   2)   1.09917   1.09711   0.88880   0.95540
   C(HETATM   15  C2  HET D   2)   1.09206   1.00934   1.03233   1.08050
   C(HETATM   16  C3  HET D   2)   1.10323   0.98043   0.91488   0.94120
 *******************************************************************************
 ** Site#: 29054        For non-commercial use only    Version 18.021W 64BITS **
 *******************************************************************************
 ** Cite this program as: MOPAC2016, Version: 18.021W, James J. P. Stewart,   **
 ** Stewart Computational Chemistry, web: HTTP://OpenMOPAC.net. Days left: 364**
 *******************************************************************************
 **                                                                           **
 **                                MOPAC2016                                  **
 **                                                                           **
 *******************************************************************************

                              PM7 CALCULATION RESULTS


 *******************************************************************************
 *  CALCULATION DONE:                                Mon Jan 22 13:06:09 2018  *
 *
 *
 *
 *                 CHARGE ON SYSTEM =    +1
 *
 *
 *
 *  EPS= 78.40 - USE ANDREAS KLAMT'S COSMO IMPLICIT SOLVATION MODEL
 *  OLDGEO     - PREVIOUS GEOMETRY TO BE USED
 *  FORCE      - FORCE CALCULATION SPECIFIED
 *  T=         - A TIME OF 172800.0 SECONDS REQUESTED
 *  DUMP=N     - RESTART FILE WRITTEN EVERY  7200.000 SECONDS
 *******************************************************************************
oldgeo FORCE eps=78.4 charge=1
 NH2Cl + pyridinium => [H3NCl](+) + pyridine
 Calculate vibrational modes
  ATOM               CHEMICAL                 BOND LENGTH      BOND ANGLE     TWIST ANGLE 
 NUMBER               SYMBOL                  (ANGSTROMS)      (DEGREES)       (DEGREES) 
   (I)                                           NA:I           NB:NA:I       NC:NB:NA:I       NA    NB    NC 
     1       H(HETATM    1  H   NH3 A   1)    0.00009576  *   -0.0003348  *   -0.0000377  *
     2       N(HETATM    2  N   NH3 A   1)    1.31162539  *    0.0015381  *    0.0029903  *     1     0     0
     3       N(HETATM    3  N   HET B   2)    1.31170243  *  174.4356711  *    0.0009933  *     1     2     0
     4       C(HETATM    4  C1  HET B   2)    1.35353981  *  119.9213969  *  -67.7283422  *     3     1     2
     5       C(HETATM    5  C2  HET B   2)    1.39633211  *  121.0884647  * -179.7794781  *     4     3     1
     6       H(HETATM    6  H1  HET D   2)    2.16482708  *  145.0989739  *    0.0550964  *     5     4     3
     7       H(HETATM    7  H2  HET D   2)    2.51076479  *   93.1755121  *    0.0078802  *     6     5     4
     8       H(HETATM    8  H3  HET D   2)    2.09918514  *   92.0489285  * -179.6835970  *     3     1     4
     9       H(HETATM    9  H1  HET B   2)    1.10153425  *  117.0473831  *  179.9632643  *     4     3     5
    10       H(HETATM   10  H2  HET B   2)    1.09318537  *  119.8120767  *  179.9550834  *     5     4     6
    11       H(HETATM   11 1H   NH3 A   1)    1.02764562  *  112.1841375  *  172.6295644  *     2     1     3
    12       H(HETATM   12 2H   NH3 A   1)    1.02612662  *  113.2257652  * -123.9624189  *     2     1    11
    13      Cl(HETATM   13 3CL  NH3 A   1)    1.75273536  *  107.4308845  * -118.1807798  *     2     1    12
    14       C(HETATM   14  C1  HET D   2)    1.09565863  *   33.7614326  *   -0.0528640  *     6     5     7
    15       C(HETATM   15  C2  HET D   2)    1.09287823  *   59.2616605  *   -0.0435667  *     7     6     5
    16       C(HETATM   16  C3  HET D   2)    1.10154490  *   35.0332665  *  179.9472407  *     8     3     1
 

 General Reference for PM7:
 "Optimization of Parameters for Semiempirical Methods VI: More Modifications to the 
 NDDO Approximations and Re-optimization of Parameters", J. J. P. Stewart, J. Mol. Mod., 1:32, 19 (2013)
 http://www.springerlink.com/openurl.asp?genre=article&id=doi:10.1007/s00894-012-1667-x

           Empirical Formula: C5 H8 N2 Cl  =    16 atoms



      MOLECULAR POINT GROUP   :   C1  


      RHF CALCULATION, NO. OF DOUBLY OCCUPIED LEVELS = 22



          HEAT OF FORMATION =     139.179157 KCALS/MOLE


          CARTESIAN COORDINATE DERIVATIVES

   NUMBER  ATOM         X            Y            Z

     1       H      0.326733    -2.035729    -0.462168
     2       N     -0.657019     1.666636    -0.170759
     3       N     -0.385274     0.599210    -0.039955
     4       C      0.605131     0.177186     0.291731
     5       C     -0.200944    -0.170434    -0.232648
     6       H      0.098300     0.070444     0.055500
     7       H      0.028577     0.015747     0.046001
     8       H     -0.104090    -0.218096    -0.491277
     9       H     -0.128033     0.059447     0.126123
    10       H      0.117147     0.064976     0.056310
    11       H      0.036206     0.022518     0.469142
    12       H      0.301810    -0.240437     0.047576
    13      Cl      0.104872    -0.099390     0.048089
    14       C     -0.108669    -0.056268     0.002706
    15       C     -0.004870    -0.017836    -0.089064
    16       C     -0.029898     0.162241     0.342873
 


          GRADIENT NORM =   3.12414


          TIME FOR SCF CALCULATION =    0.02

          TIME FOR DERIVATIVES     =    0.03

          MOLECULAR WEIGHT =  131.58



          ROTATIONAL CONSTANTS IN CM(-1)

          A =    0.14160009   B =    0.02290449   C =    0.02043894



           PRINCIPAL MOMENTS OF INERTIA IN UNITS OF 10**(-40)*GRAM-CM**2

          A =      197.6890   B =     1222.1525   C =     1369.5806


          ORIENTATION OF MOLECULE IN FORCE CALCULATION

    NO.       ATOM         X         Y         Z

     1          H       0.9458   -0.3085    0.4148
     2          N       2.2574   -0.3085    0.4148
     3          N      -0.3598   -0.1813    0.4148
     4          C      -0.9886    0.3267    1.5004
     5          C      -2.3774    0.4685    1.5285
     6          H      -4.2143    0.1809    0.4196
     7          H      -3.0235   -0.7606   -1.5803
     8          H      -0.5126   -0.9760   -1.5221
     9          H      -0.3568    0.6197    2.3539
    10          H      -2.8638    0.8815    2.4162
    11          H       2.6454   -1.2522    0.5369
    12          H       2.6620    0.3143    1.1229
    13         Cl       2.7824    0.2768   -1.1516
    14          C      -3.1235    0.0783    0.4175
    15          C      -2.4654   -0.4450   -0.6952
    16          C      -1.0751   -0.5652   -0.6687


    FIRST DERIVATIVES WILL BE USED IN THE CALCULATION OF SECOND DERIVATIVES

          ESTIMATED TIME TO COMPLETE CALCULATION =        4.50 SECONDS

    FOR POINT-GROUP C1   THERE ARE   1 UNIQUE SYMMETRY FUNCTIONS.

 STEP:   1 TIME =     0.05 SECS, INTEGRAL =      0.05 TIME LEFT: 172799.91
 STEP:   2 TIME =     0.03 SECS, INTEGRAL =      0.08 TIME LEFT: 172799.88
 STEP:   3 TIME =     0.03 SECS, INTEGRAL =      0.11 TIME LEFT: 172799.84
 STEP:   4 TIME =     0.05 SECS, INTEGRAL =      0.16 TIME LEFT: 172799.80
 STEP:   5 TIME =     0.03 SECS, INTEGRAL =      0.19 TIME LEFT: 172799.77
 STEP:   6 TIME =     0.05 SECS, INTEGRAL =      0.23 TIME LEFT: 172799.72
 STEP:   7 TIME =     0.03 SECS, INTEGRAL =      0.27 TIME LEFT: 172799.69
 STEP:   8 TIME =     0.05 SECS, INTEGRAL =      0.31 TIME LEFT: 172799.64
 STEP:   9 TIME =     0.03 SECS, INTEGRAL =      0.34 TIME LEFT: 172799.61
 STEP:  10 TIME =     0.05 SECS, INTEGRAL =      0.39 TIME LEFT: 172799.56
 STEP:  11 TIME =     0.05 SECS, INTEGRAL =      0.44 TIME LEFT: 172799.52
 STEP:  12 TIME =     0.03 SECS, INTEGRAL =      0.47 TIME LEFT: 172799.48
 STEP:  13 TIME =     0.05 SECS, INTEGRAL =      0.52 TIME LEFT: 172799.44
 STEP:  14 TIME =     0.03 SECS, INTEGRAL =      0.55 TIME LEFT: 172799.41
 STEP:  15 TIME =     0.05 SECS, INTEGRAL =      0.59 TIME LEFT: 172799.36
 STEP:  16 TIME =     0.05 SECS, INTEGRAL =      0.64 TIME LEFT: 172799.31
 STEP:  17 TIME =     0.03 SECS, INTEGRAL =      0.67 TIME LEFT: 172799.28
 STEP:  18 TIME =     0.03 SECS, INTEGRAL =      0.70 TIME LEFT: 172799.25
 STEP:  19 TIME =     0.05 SECS, INTEGRAL =      0.75 TIME LEFT: 172799.20
 STEP:  20 TIME =     0.05 SECS, INTEGRAL =      0.80 TIME LEFT: 172799.16
 STEP:  21 TIME =     0.05 SECS, INTEGRAL =      0.84 TIME LEFT: 172799.11
 STEP:  22 TIME =     0.03 SECS, INTEGRAL =      0.88 TIME LEFT: 172799.08
 STEP:  23 TIME =     0.05 SECS, INTEGRAL =      0.92 TIME LEFT: 172799.03
 STEP:  24 TIME =     0.05 SECS, INTEGRAL =      0.97 TIME LEFT: 172798.98
 STEP:  25 TIME =     0.05 SECS, INTEGRAL =      1.02 TIME LEFT: 172798.94
 STEP:  26 TIME =     0.03 SECS, INTEGRAL =      1.05 TIME LEFT: 172798.91
 STEP:  27 TIME =     0.05 SECS, INTEGRAL =      1.09 TIME LEFT: 172798.86
 STEP:  28 TIME =     0.05 SECS, INTEGRAL =      1.14 TIME LEFT: 172798.81
 STEP:  29 TIME =     0.05 SECS, INTEGRAL =      1.19 TIME LEFT: 172798.77
 STEP:  30 TIME =     0.05 SECS, INTEGRAL =      1.23 TIME LEFT: 172798.72
 STEP:  31 TIME =     0.05 SECS, INTEGRAL =      1.28 TIME LEFT: 172798.67
 STEP:  32 TIME =     0.03 SECS, INTEGRAL =      1.31 TIME LEFT: 172798.64
 STEP:  33 TIME =     0.05 SECS, INTEGRAL =      1.36 TIME LEFT: 172798.59
 STEP:  34 TIME =     0.03 SECS, INTEGRAL =      1.39 TIME LEFT: 172798.56
 STEP:  35 TIME =     0.05 SECS, INTEGRAL =      1.44 TIME LEFT: 172798.52
 STEP:  36 TIME =     0.05 SECS, INTEGRAL =      1.48 TIME LEFT: 172798.47
 STEP:  37 TIME =     0.03 SECS, INTEGRAL =      1.52 TIME LEFT: 172798.44
 STEP:  38 TIME =     0.05 SECS, INTEGRAL =      1.56 TIME LEFT: 172798.39
 STEP:  39 TIME =     0.03 SECS, INTEGRAL =      1.59 TIME LEFT: 172798.36
 STEP:  40 TIME =     0.03 SECS, INTEGRAL =      1.62 TIME LEFT: 172798.33
 STEP:  41 TIME =     0.05 SECS, INTEGRAL =      1.67 TIME LEFT: 172798.29
 STEP:  42 TIME =     0.05 SECS, INTEGRAL =      1.71 TIME LEFT: 172798.24
 STEP:  43 TIME =     0.05 SECS, INTEGRAL =      1.77 TIME LEFT: 172798.19
 STEP:  44 TIME =     0.03 SECS, INTEGRAL =      1.79 TIME LEFT: 172798.16
 STEP:  45 TIME =     0.05 SECS, INTEGRAL =      1.84 TIME LEFT: 172798.11
 STEP:  46 TIME =     0.03 SECS, INTEGRAL =      1.87 TIME LEFT: 172798.08
 STEP:  47 TIME =     0.05 SECS, INTEGRAL =      1.92 TIME LEFT: 172798.04
 STEP:  48 TIME =     0.05 SECS, INTEGRAL =      1.96 TIME LEFT: 172797.99

(To convert to Hartree/Bohr^2, multiply by (10^(-21) x N x a0^2)/(4.184 x 627.51) =  0.0642)


           FORCE MATRIX IN MILLIDYNES/ANGSTROM


                  H  1       N  2       N  3       C  4       C  5       H  6
 ------------------------------------------------------------------------------
     H    1   2.370926
     N    2   0.787073   9.716383
     N    3   1.395771   1.167518  14.799036
     C    4   1.105885   0.084539   5.663791  15.278126
     C    5   0.135510   0.050150   2.703513   5.828202  14.983940
     H    6   0.024868   0.010127   0.048401   0.139287   0.696804   4.235235
     H    7   0.032273   0.012009   0.107908   0.011834   0.095718   0.041193
     H    8   0.072337   0.024775   0.881948   0.144851   0.041914   0.013557
     H    9   0.076964   0.026764   0.883363   3.300143   0.643428   0.014197
     H   10   0.029743   0.012444   0.106464   0.733015   3.380552   0.047164
     H   11   0.302557   3.718994   0.088482   0.007238   0.003907   0.002067
     H   12   0.320086   3.487226   0.089518   0.016007   0.009179   0.001250
    Cl   13   0.359967   3.812348   0.054738   0.006036   0.002939   0.000349
     C   14   0.017970   0.006228   1.848677   2.401716   6.093506   3.411272
     C   15   0.134177   0.050321   2.698319   1.661431   2.248861   0.706253
     C   16   1.066439   0.182616   5.651970   2.598187   1.676218   0.109057


                  H  7       H  8       H  9       H 10       H 11       H 12
 ------------------------------------------------------------------------------
     H    7   4.268744
     H    8   0.029235   4.195437
     H    9   0.018195   0.015174   4.177827
     H   10   0.011125   0.017913   0.030199   4.264610
     H   11   0.002059   0.009534   0.002938   0.002076   4.144169
     H   12   0.001885   0.004132   0.010519   0.002302   0.570746   3.930094
    Cl   13   0.000975   0.002025   0.002389   0.000794   0.669794   0.684217
     C   14   0.727172   0.097241   0.097460   0.726730   0.003802   0.002266
     C   15   3.390985   0.652141   0.040488   0.103124   0.010437   0.007145
     C   16   0.729360   3.313230   0.143844   0.015666   0.109960   0.024256


                 Cl 13       C 14       C 15       C 16
 ------------------------------------------------------
    Cl   13   5.060900
     C   14   0.001190  15.116330
     C   15   0.003588   6.077837  14.986354
     C   16   0.011822   2.388074   5.865548  15.258488


          HEAT OF FORMATION =     139.179157 KCALS/MOLE

          ZERO POINT ENERGY      74.032 KCAL/MOL

         NOTE: SYSTEM IS NOT A GROUND STATE, THEREFORE ZERO POINT
         ENERGY IS NOT MEANINGFULL. ZERO POINT ENERGY PRINTED
         DOES NOT INCLUDE THE  2 IMAGINARY FREQUENCIES


           NORMAL COORDINATE ANALYSIS (Total motion = 1 Angstrom)


   Root No.       1         2         3         4         5         6         7         8

                 1 A       2 A       3 A       4 A       5 A       6 A       7 A       8 A   

               -1073.4    -102.5      50.5      96.2     180.2     340.0     343.3     393.8
  
           1    0.6982   -0.0073   -0.0037   -0.0254   -0.0011    0.0022   -0.0073    0.0585
           2   -0.0708    0.0172   -0.0485    0.0154    0.0678   -0.0019    0.0296   -0.0495
           3   -0.0722   -0.0242   -0.0329   -0.0450    0.0352   -0.0005   -0.0212    0.0155
           4   -0.0187   -0.0085   -0.0101   -0.0162    0.0052   -0.0020   -0.0073    0.1423
           5   -0.0078   -0.0163   -0.0574    0.0796   -0.0334    0.0009    0.0042   -0.0137
           6   -0.0032    0.0048   -0.0261   -0.0056   -0.0430   -0.0008    0.0002    0.0416
           7   -0.0115   -0.0015   -0.0101   -0.0294   -0.0112    0.0001    0.0067    0.0062
           8    0.0097    0.0936   -0.0274   -0.0397    0.0279   -0.0005    0.0706    0.0014
           9    0.0115   -0.0617   -0.0210   -0.0054    0.0484    0.0016   -0.0321   -0.0132
          10   -0.0056    0.0071    0.0150   -0.0124   -0.0444    0.0053   -0.0003   -0.0231
          11   -0.0067    0.0395    0.0216   -0.0380    0.0136    0.0564   -0.0381   -0.0086
          12   -0.0104   -0.0267   -0.0286    0.0038    0.0334   -0.0217    0.0124   -0.0211
          13   -0.0081    0.0021    0.0178   -0.0092   -0.0505   -0.0050    0.0007   -0.0268
          14    0.0012   -0.0345    0.0409   -0.0103   -0.0042   -0.0586   -0.0321   -0.0061
          15    0.0026    0.0205   -0.0095    0.0172    0.0001    0.0237    0.0164   -0.0114
          16    0.0024   -0.0197   -0.0042   -0.0239   -0.0225   -0.0006    0.0237   -0.0496
          17   -0.0017   -0.1140    0.0314    0.0425   -0.0181   -0.0039    0.1905    0.0271
          18   -0.0025    0.0787    0.0298    0.0283   -0.0462    0.0066   -0.0815    0.0030
          19   -0.0043   -0.0391   -0.0519   -0.0596    0.0382    0.0160   -0.0101   -0.0345
          20    0.0006   -0.0421   -0.0434    0.0349   -0.0215    0.1441   -0.0956   -0.0009
          21    0.0054    0.0313    0.0379    0.0102   -0.0093   -0.0612    0.0420    0.0103
          22    0.0086   -0.0270   -0.0534   -0.0623    0.0360   -0.0160   -0.0050   -0.0601
          23    0.0076    0.0769   -0.0873   -0.0085    0.0126   -0.1743   -0.0937   -0.0133
          24    0.0212   -0.0496    0.0076   -0.0161    0.0509    0.0733    0.0346   -0.0042
          25   -0.0009    0.0213    0.0341   -0.0002   -0.0733    0.0148   -0.0022   -0.0366
          26   -0.0106    0.0588    0.0425   -0.0605    0.0256    0.1692   -0.0953   -0.0087
          27   -0.0177   -0.0444   -0.0498    0.0027    0.0504   -0.0673    0.0341   -0.0103
          28   -0.0052    0.0085    0.0386    0.0075   -0.0747   -0.0171   -0.0031   -0.0091
          29   -0.0018   -0.0731    0.0772   -0.0090   -0.0104   -0.1631   -0.0925   -0.0132
          30   -0.0017    0.0420   -0.0149    0.0256   -0.0102    0.0655    0.0420    0.0025
          31    0.0102   -0.0368   -0.0073   -0.0017   -0.0529    0.0068   -0.0185    0.1813
          32    0.0011   -0.0290   -0.0600    0.0920   -0.0629    0.0057   -0.0003    0.0022
          33    0.0470   -0.0010   -0.0679    0.0683   -0.0923    0.0066    0.0001    0.0196
          34   -0.0941   -0.0010   -0.0261   -0.0676    0.0703   -0.0110   -0.0019    0.1647
          35    0.0445   -0.0326   -0.0961    0.1319   -0.0995    0.0082   -0.0017    0.0066
          36    0.0334    0.0141    0.0199   -0.0231   -0.0203   -0.0010    0.0018    0.0057
          37    0.0002    0.0237    0.0230    0.0721    0.0364   -0.0001   -0.0031   -0.0057
          38    0.0005   -0.0175    0.0389   -0.0145    0.0057   -0.0006    0.0009    0.0034
          39   -0.0024    0.0147    0.0205   -0.0117   -0.0200   -0.0006    0.0018   -0.0074
          40   -0.0004   -0.0148   -0.0057   -0.0262   -0.0219    0.0005    0.0124   -0.0518
          41    0.0010   -0.0620    0.0151    0.0182   -0.0098    0.0025    0.0711    0.0145
          42    0.0010    0.0403    0.0154    0.0187   -0.0162   -0.0020   -0.0271   -0.0004
          43   -0.0029   -0.0261   -0.0319   -0.0453    0.0121    0.0064   -0.0000   -0.0393
          44   -0.0008   -0.0198   -0.0281    0.0159   -0.0095    0.0590   -0.0371    0.0072
          45   -0.0021    0.0152    0.0204    0.0086    0.0027   -0.0249    0.0153    0.0116
          46    0.0000   -0.0182   -0.0333   -0.0469    0.0111   -0.0044   -0.0009   -0.0333
          47    0.0044    0.0498   -0.0502   -0.0096    0.0084   -0.0567   -0.0402    0.0014
          48    0.0051   -0.0301    0.0026   -0.0052    0.0363    0.0238    0.0106    0.0066


   Root No.       9        10        11        12        13        14        15        16

                 9 A      10 A      11 A      12 A      13 A      14 A      15 A      16 A   

                 600.3     619.5     663.2     724.7     786.8     863.2     902.9     956.7
  
           1    0.0045   -0.0036    0.0118    0.0736   -0.0059   -0.0423    0.0034   -0.0031
           2   -0.0090   -0.0370    0.0125    0.1665   -0.0009   -0.0403    0.0053    0.0156
           3    0.0091   -0.0002    0.0036   -0.0475   -0.0069    0.0567   -0.0036   -0.0177
           4   -0.0007   -0.0000    0.0362   -0.0014    0.0016   -0.0837   -0.0000    0.0013
           5   -0.0012   -0.0033   -0.0019    0.0376   -0.0033   -0.0744    0.0004   -0.0016
           6    0.0002   -0.0006    0.0191    0.0117   -0.0021    0.2332    0.0008    0.0018
           7   -0.0039    0.0023   -0.0910    0.0047    0.0021   -0.0035   -0.0004   -0.0028
           8   -0.0433    0.0272    0.0050   -0.0103    0.0158   -0.0010    0.0014    0.0159
           9    0.0211    0.0253   -0.0001    0.0014   -0.0048   -0.0059    0.0004   -0.0015
          10    0.0116    0.0613   -0.0179    0.0092   -0.0008    0.0058    0.0039   -0.0003
          11    0.0407    0.0087    0.0202   -0.0082   -0.0161   -0.0007    0.0273   -0.0417
          12   -0.0073    0.0658    0.0433   -0.0098    0.0081    0.0020   -0.0099    0.0178
          13    0.0045    0.0624   -0.0058    0.0138   -0.0013    0.0111    0.0041    0.0022
          14   -0.0420   -0.0213    0.0290   -0.0060   -0.0176   -0.0085    0.0296    0.0128
          15    0.0084   -0.0630    0.0698   -0.0107    0.0058   -0.0123   -0.0139   -0.0101
          16    0.0127   -0.0006    0.1012   -0.0021    0.0147   -0.0113   -0.0004   -0.0202
          17    0.1352   -0.0177   -0.0027    0.0212    0.1610    0.0212    0.0038   -0.1947
          18   -0.0505    0.0620   -0.0016    0.0160   -0.0618   -0.0016   -0.0062    0.0756
          19   -0.0130   -0.0218   -0.0809   -0.0136    0.0166    0.0194    0.0153   -0.0171
          20   -0.1060   -0.0243    0.0032    0.0280    0.1789    0.0145    0.2117   -0.0761
          21    0.0328   -0.0793   -0.0339   -0.0104   -0.0754    0.0015   -0.0854    0.0398
          22    0.0103   -0.0413    0.0462   -0.0173    0.0102   -0.0009    0.0192    0.0300
          23    0.1627   -0.0182   -0.0043   -0.0059    0.1090   -0.0137    0.1938    0.2004
          24   -0.0572    0.0887   -0.0058   -0.0038   -0.0442   -0.0017   -0.0817   -0.0830
          25    0.0201    0.0404    0.0498    0.0133    0.0100    0.0112   -0.0139    0.0162
          26    0.1582   -0.0271   -0.0037    0.0149    0.1249   -0.0013   -0.1728    0.1992
          27   -0.0552    0.0858   -0.0004   -0.0195   -0.0480   -0.0028    0.0714   -0.0757
          28   -0.0099    0.0156   -0.0674    0.0303    0.0173    0.0186   -0.0199    0.0032
          29   -0.1137   -0.0157    0.0272    0.0253    0.1886    0.0124   -0.2018   -0.0512
          30    0.0345   -0.0852    0.0302   -0.0156   -0.0796   -0.0161    0.0803    0.0209
          31    0.0003    0.0300    0.0150   -0.2181    0.0208   -0.0841   -0.0026    0.0007
          32   -0.0012    0.0108   -0.0139   -0.0671    0.0067   -0.0672   -0.0006   -0.0004
          33   -0.0011    0.0137   -0.0078   -0.0909    0.0111    0.1388    0.0006    0.0071
          34   -0.0016   -0.0359    0.0855    0.2508   -0.0263    0.0107    0.0037   -0.0047
          35   -0.0008    0.0235   -0.0243   -0.1551    0.0172   -0.1011   -0.0021    0.0017
          36    0.0010   -0.0040    0.0097    0.0407   -0.0043    0.1710    0.0012    0.0024
          37    0.0002   -0.0002    0.0013   -0.0045   -0.0003    0.0306   -0.0001   -0.0000
          38   -0.0003    0.0006    0.0017   -0.0040    0.0000    0.0368    0.0000    0.0004
          39    0.0002   -0.0004   -0.0060    0.0052    0.0003   -0.1007   -0.0003   -0.0004
          40    0.0033   -0.0001    0.1076   -0.0047   -0.0022   -0.0148   -0.0017    0.0005
          41    0.0344   -0.0208   -0.0116   -0.0012   -0.0186    0.0000   -0.0021    0.0295
          42   -0.0207   -0.0377    0.0011    0.0028    0.0063   -0.0010    0.0007   -0.0082
          43   -0.0127   -0.0648   -0.0141   -0.0112   -0.0018    0.0063   -0.0030    0.0038
          44   -0.0422   -0.0100   -0.0271   -0.0004   -0.0119    0.0041   -0.0268    0.0183
          45    0.0089   -0.0644   -0.0712   -0.0025    0.0044    0.0148    0.0114   -0.0071
          46   -0.0040   -0.0595   -0.0232   -0.0074   -0.0021    0.0093   -0.0031   -0.0048
          47    0.0432    0.0224   -0.0187   -0.0065   -0.0165   -0.0010   -0.0331   -0.0446
          48   -0.0074    0.0647   -0.0470    0.0004    0.0084   -0.0006    0.0130    0.0111


   Root No.      17        18        19        20        21        22        23        24

                17 A      18 A      19 A      20 A      21 A      22 A      23 A      24 A   

                1002.7    1005.6    1048.9    1111.9    1156.1    1161.0    1177.0    1204.6
  
           1   -0.0239   -0.0016    0.0015   -0.0212   -0.0004   -0.0128    0.0089    0.0156
           2   -0.0073   -0.0054    0.0017    0.0576    0.1797   -0.0259   -0.0307   -0.2582
           3    0.0074    0.0008   -0.0049   -0.0274   -0.0708    0.0206    0.0565    0.1434
           4   -0.0159    0.0014    0.0004    0.0030    0.0087   -0.0009   -0.0048   -0.0325
           5   -0.0011    0.0003    0.0005   -0.0089   -0.0328    0.0030    0.0045    0.0015
           6    0.0063   -0.0006    0.0003    0.0010   -0.0060    0.0002   -0.0010   -0.0021
           7    0.0956   -0.0072   -0.0024    0.0060   -0.0012   -0.0203    0.0047   -0.0085
           8   -0.0065    0.0021    0.0033    0.0157   -0.0074    0.0038   -0.0019    0.0070
           9   -0.0015   -0.0004   -0.0005    0.0455   -0.0052    0.0027   -0.0079   -0.0023
          10   -0.0403    0.0000    0.0010    0.0192   -0.0111   -0.0003   -0.0442   -0.0016
          11   -0.0367   -0.0445   -0.0100   -0.0085    0.0012   -0.0079    0.0012   -0.0049
          12   -0.0670    0.0247    0.0057   -0.0281    0.0023   -0.0176    0.0013   -0.0092
          13   -0.0341    0.0065    0.0055   -0.0149    0.0092    0.0022    0.0250    0.0024
          14    0.0363    0.0443    0.0382   -0.0105    0.0027    0.0086   -0.0042   -0.0052
          15    0.0479   -0.0228   -0.0173   -0.0252    0.0062    0.0193   -0.0108   -0.0105
          16    0.0626   -0.0009    0.0238    0.0032   -0.0011   -0.0253    0.0171    0.0083
          17   -0.0106    0.0190    0.2866    0.0221    0.0218    0.0231    0.1391   -0.0101
          18   -0.0111   -0.0276   -0.1076    0.0234    0.0628    0.0538    0.3561   -0.0335
          19   -0.0093    0.0115   -0.0115   -0.1501    0.0474    0.1722   -0.0307   -0.0453
          20   -0.0133    0.1507   -0.1997    0.0399   -0.0168   -0.0570    0.0100    0.0200
          21   -0.0639   -0.0556    0.0808    0.0607   -0.0288   -0.1152    0.0046    0.0326
          22   -0.1042   -0.0139    0.0135    0.1144   -0.0112    0.1361    0.0681    0.0229
          23    0.0234   -0.1705    0.0670   -0.0023   -0.0094    0.0219   -0.0031    0.0172
          24    0.0226    0.0671   -0.0266    0.0613   -0.0063    0.0828    0.0095    0.0177
          25   -0.1053    0.0246    0.0072   -0.1297    0.0238    0.0748   -0.1174   -0.0164
          26    0.0483    0.1954    0.0268    0.0285   -0.0131   -0.0271    0.0351    0.0089
          27   -0.0398   -0.0760   -0.0114    0.0777   -0.0183   -0.0609    0.0404   -0.0041
          28   -0.0066   -0.0205   -0.0191    0.1183   -0.0043    0.1989   -0.0465    0.0232
          29   -0.0207   -0.1865   -0.1402    0.0064   -0.0051    0.0260   -0.0213    0.0011
          30    0.0826    0.0699    0.0514    0.0428    0.0028    0.1186   -0.0375   -0.0020
          31   -0.0150    0.0026   -0.0015   -0.0082   -0.1197    0.0226    0.0360    0.0177
          32    0.0003    0.0003   -0.0003   -0.0053   -0.0443    0.0075    0.0131    0.0166
          33    0.0017   -0.0015   -0.0003    0.0450    0.2566   -0.0276   -0.0493    0.0416
          34   -0.0157   -0.0014    0.0032   -0.0294    0.0366    0.0099   -0.0014    0.2960
          35   -0.0056    0.0018   -0.0027    0.0313    0.1495   -0.0118   -0.0196    0.0599
          36    0.0061   -0.0007    0.0018   -0.0177   -0.1778    0.0073    0.0188   -0.2380
          37    0.0008    0.0000   -0.0001   -0.0003   -0.0011    0.0004    0.0007    0.0035
          38    0.0010   -0.0001    0.0000    0.0012    0.0069   -0.0006   -0.0011    0.0029
          39   -0.0031    0.0002   -0.0000   -0.0004    0.0019    0.0001   -0.0002    0.0044
          40    0.0690   -0.0046   -0.0097    0.0024   -0.0031   -0.0306    0.0075    0.0089
          41   -0.0087   -0.0067   -0.0667    0.0111   -0.0029    0.0049   -0.0009    0.0011
          42    0.0011    0.0036    0.0274    0.0355   -0.0069    0.0033   -0.0064    0.0023
          43   -0.0363    0.0001    0.0057    0.0119   -0.0100   -0.0030   -0.0268    0.0064
          44   -0.0187   -0.0326    0.0529   -0.0122    0.0007   -0.0120   -0.0001    0.0025
          45   -0.0513    0.0182   -0.0203   -0.0235   -0.0002   -0.0260   -0.0002    0.0061
          46   -0.0355    0.0047   -0.0013   -0.0197    0.0119    0.0070    0.0420   -0.0057
          47    0.0323    0.0366   -0.0223   -0.0065    0.0028    0.0040   -0.0060    0.0002
          48    0.0723   -0.0213    0.0063   -0.0340    0.0043    0.0106   -0.0065    0.0070


   Root No.      25        26        27        28        29        30        31        32

                25 A      26 A      27 A      28 A      29 A      30 A      31 A      32 A   

                1233.7    1259.0    1282.5    1330.1    1396.2    1489.7    1534.9    1569.5
  
           1    0.0185   -0.0252    0.0130    0.0053    0.0224   -0.0131    0.0187   -0.0109
           2   -0.0421    0.0372    0.0305   -0.0164    0.2272   -0.0242   -0.0020    0.0478
           3    0.0173   -0.0061    0.0255   -0.0241   -0.0963    0.1076   -0.0014   -0.0507
           4   -0.0112    0.0041    0.0018    0.0041   -0.0323    0.0052   -0.0028   -0.0259
           5    0.0014   -0.0014   -0.0008    0.0021   -0.0166    0.0011   -0.0003    0.0057
           6    0.0005   -0.0002   -0.0018   -0.0016    0.0191   -0.0039    0.0017   -0.0320
           7    0.0643   -0.0111   -0.0001   -0.0006    0.0001    0.0009    0.0508    0.0003
           8   -0.0050   -0.0013   -0.0074   -0.0133   -0.0022    0.0220   -0.0037    0.0018
           9   -0.0012   -0.0034   -0.0171   -0.0314    0.0050    0.0500    0.0022    0.0050
          10    0.0315   -0.0136   -0.0357    0.0062   -0.0014   -0.0365   -0.0360   -0.0016
          11    0.0134   -0.0103    0.0121   -0.0001   -0.0013   -0.0068    0.0227    0.0002
          12    0.0421   -0.0274    0.0235    0.0009   -0.0051   -0.0275    0.0469    0.0002
          13   -0.0306    0.0061    0.0270    0.0253    0.0132    0.0526   -0.0412   -0.0021
          14    0.0220   -0.0048    0.0009    0.0037    0.0004   -0.0100   -0.0158   -0.0020
          15    0.0465   -0.0099    0.0067    0.0158    0.0034   -0.0094   -0.0484   -0.0038
          16   -0.0582    0.0078   -0.0065   -0.0053   -0.0024   -0.0043    0.0433    0.0033
          17    0.0022   -0.0074   -0.0498   -0.0539   -0.0207   -0.0560   -0.0059   -0.0034
          18   -0.0026   -0.0132   -0.1352   -0.1299   -0.0459   -0.1423   -0.0088   -0.0063
          19   -0.1247   -0.1483   -0.1929    0.0783    0.0209    0.0532    0.1212    0.0069
          20    0.0134    0.0523    0.0505   -0.0217   -0.0104   -0.0307   -0.0281   -0.0026
          21    0.0028    0.0896    0.0905   -0.0392   -0.0156   -0.0600   -0.0418   -0.0048
          22    0.1055    0.1988   -0.0166    0.1975    0.0032   -0.0535    0.1224   -0.0061
          23   -0.0090    0.0390   -0.0073    0.0278   -0.0057   -0.0209    0.0087   -0.0035
          24    0.0051    0.1462   -0.0218    0.1115   -0.0004   -0.0634    0.0501   -0.0066
          25    0.1194    0.1739   -0.0457   -0.1930   -0.0143    0.0469    0.1170    0.0085
          26   -0.0124   -0.0728    0.0156    0.0647    0.0000   -0.0310   -0.0318   -0.0050
          27   -0.0142   -0.1406    0.0252    0.1175    0.0065   -0.0642   -0.0519   -0.0050
          28   -0.1196   -0.0955    0.2502   -0.0824   -0.0284   -0.0627    0.1238    0.0046
          29    0.0131   -0.0166    0.0255   -0.0039   -0.0050   -0.0163    0.0032   -0.0015
          30   -0.0017   -0.0622    0.1225   -0.0396   -0.0168   -0.0619    0.0422    0.0000
          31   -0.0088    0.0030    0.0018   -0.0366    0.2804   -0.0381   -0.0067    0.2477
          32    0.0019   -0.0005   -0.0001   -0.0101    0.0769   -0.0118   -0.0033    0.1238
          33    0.0070   -0.0005   -0.0024    0.0284   -0.1948    0.0131   -0.0174    0.3582
          34    0.0383   -0.0268   -0.0238   -0.0040    0.0937   -0.0362   -0.0032    0.1416
          35    0.0015   -0.0023   -0.0003   -0.0121    0.0748    0.0027    0.0126   -0.2902
          36   -0.0274    0.0187    0.0141    0.0141   -0.1229    0.0165   -0.0099    0.1600
          37    0.0005   -0.0003   -0.0001   -0.0005    0.0012    0.0004    0.0000   -0.0006
          38    0.0004   -0.0001   -0.0002    0.0003   -0.0028    0.0004   -0.0001    0.0005
          39    0.0002   -0.0004   -0.0003   -0.0003    0.0044   -0.0009    0.0001   -0.0015
          40   -0.0571    0.0091   -0.0047   -0.0011   -0.0008    0.0010    0.0562    0.0045
          41    0.0054   -0.0028   -0.0147    0.0028    0.0012    0.0172   -0.0061    0.0003
          42   -0.0012   -0.0046   -0.0336    0.0063    0.0048    0.0433   -0.0012    0.0030
          43   -0.0347   -0.0013   -0.0270   -0.0245   -0.0135   -0.0520   -0.0422   -0.0075
          44   -0.0161    0.0053    0.0054    0.0086    0.0020    0.0002    0.0248    0.0012
          45   -0.0459    0.0116    0.0016    0.0140    0.0010   -0.0115    0.0506    0.0018
          46    0.0300    0.0014    0.0406   -0.0053    0.0049    0.0356   -0.0378    0.0051
          47   -0.0193    0.0138    0.0010   -0.0008   -0.0004   -0.0127   -0.0167    0.0014
          48   -0.0402    0.0331    0.0148   -0.0008   -0.0044   -0.0244   -0.0495   -0.0026


   Root No.      33        34        35        36        37        38        39        40

                33 A      34 A      35 A      36 A      37 A      38 A      39 A      40 A   

                1661.2    1678.4    2137.5    2588.9    2672.8    2693.7    2698.2    2706.1
  
           1    0.0327   -0.0317    0.0914   -0.0260    0.0194    0.0018   -0.0058    0.0007
           2    0.0334   -0.0005    0.2952   -0.0179    0.0062   -0.0020    0.0000    0.0000
           3   -0.0210    0.0091    0.6381   -0.0180    0.0103   -0.0010   -0.0001    0.0002
           4   -0.0006    0.0051   -0.0034   -0.0121    0.0201    0.0003    0.0002   -0.0000
           5   -0.0010   -0.0002   -0.0072   -0.0430   -0.0316   -0.0003   -0.0003    0.0001
           6    0.0005    0.0020   -0.0128   -0.0287    0.0118    0.0002    0.0000    0.0000
           7   -0.0023   -0.0614   -0.0004    0.0007   -0.0006   -0.0004    0.0004   -0.0003
           8   -0.0464    0.0051   -0.0117    0.0006   -0.0002   -0.0027   -0.0010   -0.0000
           9   -0.1102   -0.0012   -0.0306    0.0009   -0.0003   -0.0065   -0.0023    0.0000
          10   -0.0485    0.1379    0.0299   -0.0009    0.0009   -0.0262    0.0091    0.0002
          11    0.0350   -0.0293   -0.0089   -0.0001   -0.0001   -0.0101    0.0045   -0.0009
          12    0.0778   -0.0413   -0.0029   -0.0000    0.0006   -0.0308    0.0130   -0.0024
          13   -0.0453   -0.1359   -0.0082    0.0002   -0.0001   -0.0043    0.0042    0.0033
          14   -0.0361   -0.0024    0.0026   -0.0001   -0.0000    0.0017   -0.0025   -0.0058
          15   -0.0991   -0.0364    0.0019    0.0003    0.0004    0.0031   -0.0051   -0.0128
          16    0.0002    0.0361    0.0001    0.0009    0.0051    0.0129   -0.0202    0.5055
          17   -0.0198   -0.0019    0.0038   -0.0001   -0.0004   -0.0010    0.0020   -0.0458
          18   -0.0696    0.0005    0.0058   -0.0001    0.0001    0.0008    0.0003    0.0041
          19   -0.0131    0.0198    0.0028   -0.0008    0.0021    0.0067   -0.0493   -0.0825
          20   -0.0099   -0.0129    0.0024   -0.0005    0.0014    0.0035   -0.0288   -0.0470
          21   -0.0290   -0.0237   -0.0002   -0.0016    0.0032    0.0096   -0.0805   -0.1305
          22   -0.0232   -0.0302    0.0029    0.0004    0.0048   -0.1227   -0.2494    0.0184
          23    0.0020   -0.0142    0.0078   -0.0005   -0.0034    0.0929    0.1869   -0.0127
          24   -0.0056   -0.0416    0.0091   -0.0013   -0.0075    0.1929    0.3875   -0.0260
          25    0.0248   -0.0283   -0.0045    0.0000   -0.0046    0.3124   -0.1153    0.0201
          26   -0.0046    0.0205    0.0067    0.0006   -0.0031    0.1494   -0.0543    0.0088
          27   -0.0049    0.0464    0.0137    0.0030   -0.0078    0.4355   -0.1588    0.0261
          28    0.0216    0.0204   -0.0011    0.0014    0.0022    0.0343   -0.0426   -0.0862
          29   -0.0112    0.0059   -0.0002   -0.0012   -0.0019   -0.0297    0.0359    0.0715
          30   -0.0253    0.0218   -0.0014   -0.0023   -0.0034   -0.0642    0.0774    0.1525
          31    0.0043   -0.0233    0.0437   -0.0882   -0.2195   -0.0031   -0.0014    0.0005
          32    0.0002   -0.0100    0.0095    0.2012    0.6250    0.0089    0.0056   -0.0016
          33   -0.0109   -0.0223    0.0306   -0.0315   -0.0574   -0.0005   -0.0001    0.0001
          34    0.0037   -0.0115   -0.0460    0.2672   -0.0708   -0.0017    0.0000    0.0000
          35    0.0075    0.0188    0.0151    0.4077   -0.1639   -0.0038   -0.0004    0.0002
          36   -0.0038   -0.0059    0.0409    0.4658   -0.1527   -0.0036   -0.0001    0.0000
          37   -0.0003    0.0000    0.0004    0.0002   -0.0000    0.0000   -0.0000   -0.0000
          38   -0.0001    0.0000    0.0003   -0.0000   -0.0007   -0.0000   -0.0000   -0.0000
          39    0.0002    0.0000   -0.0010   -0.0008    0.0012   -0.0000   -0.0000   -0.0000
          40    0.0085    0.0613   -0.0010   -0.0000   -0.0003   -0.0006    0.0007   -0.0384
          41    0.0759   -0.0056    0.0008   -0.0001    0.0000    0.0005    0.0000    0.0034
          42    0.1864    0.0011   -0.0022    0.0000    0.0000    0.0011    0.0003   -0.0004
          43    0.0357   -0.1313    0.0073    0.0001   -0.0001   -0.0000    0.0056    0.0035
          44   -0.0415    0.0274    0.0022    0.0000    0.0000   -0.0006    0.0014    0.0045
          45   -0.0964    0.0348    0.0015    0.0001   -0.0002   -0.0014    0.0045    0.0109
          46    0.0496    0.1377   -0.0323    0.0004   -0.0011    0.0110    0.0204    0.0001
          47    0.0226    0.0036   -0.0041    0.0004    0.0005   -0.0062   -0.0140    0.0009
          48    0.0728    0.0420   -0.0067   -0.0003    0.0002   -0.0123   -0.0289    0.0024


   Root No.      41        42

                41 A      42 A   

                2724.8    2739.8
  
           1    0.0008   -0.0064
           2    0.0010    0.0003
           3    0.0029   -0.0008
           4   -0.0000    0.0000
           5   -0.0002    0.0002
           6   -0.0001   -0.0000
           7   -0.0001    0.0014
           8    0.0004   -0.0001
           9    0.0009    0.0002
          10    0.0004    0.0025
          11   -0.0020    0.0023
          12   -0.0049    0.0062
          13    0.0150   -0.0087
          14   -0.0120    0.0072
          15   -0.0258    0.0156
          16   -0.0424    0.1979
          17    0.0043   -0.0188
          18   -0.0006   -0.0000
          19    0.1935    0.1568
          20    0.1106    0.0889
          21    0.3091    0.2493
          22   -0.0063   -0.0413
          23    0.0037    0.0301
          24    0.0080    0.0629
          25    0.0274   -0.0457
          26    0.0129   -0.0217
          27    0.0377   -0.0634
          28   -0.1951    0.1102
          29    0.1628   -0.0914
          30    0.3506   -0.1971
          31   -0.0007    0.0014
          32    0.0023   -0.0043
          33   -0.0001    0.0002
          34    0.0008    0.0004
          35    0.0012    0.0010
          36    0.0014    0.0009
          37    0.0000    0.0000
          38    0.0000    0.0000
          39    0.0000    0.0000
          40    0.0033   -0.0161
          41   -0.0025    0.0014
          42   -0.0051   -0.0005
          43   -0.0149   -0.0126
          44   -0.0080   -0.0069
          45   -0.0224   -0.0194
          46   -0.0019    0.0018
          47   -0.0008   -0.0029
          48   -0.0023   -0.0065


           MASS-WEIGHTED COORDINATE ANALYSIS (NORMAL COORDINATES)


   Root No.       1         2         3         4         5         6         7         8

                 1 A       2 A       3 A       4 A       5 A       6 A       7 A       8 A   

               -1073.4    -102.5      50.5      96.2     180.2     340.0     343.3     393.8
  
           1    0.9610   -0.0110   -0.0063   -0.0370   -0.0020    0.0039   -0.0130    0.0841
           2   -0.0974    0.0258   -0.0839    0.0224    0.1220   -0.0034    0.0525   -0.0711
           3   -0.0993   -0.0364   -0.0569   -0.0654    0.0634   -0.0009   -0.0376    0.0223
           4   -0.0958   -0.0474   -0.0649   -0.0876    0.0349   -0.0134   -0.0481    0.7631
           5   -0.0401   -0.0915   -0.3703    0.4311   -0.2239    0.0060    0.0275   -0.0735
           6   -0.0163    0.0269   -0.1684   -0.0301   -0.2888   -0.0053    0.0011    0.2229
           7   -0.0589   -0.0085   -0.0650   -0.1594   -0.0754    0.0006    0.0446    0.0332
           8    0.0495    0.5245   -0.1768   -0.2148    0.1874   -0.0031    0.4667    0.0075
           9    0.0590   -0.3456   -0.1359   -0.0293    0.3248    0.0106   -0.2122   -0.0710
          10   -0.0267    0.0368    0.0897   -0.0624   -0.2758    0.0330   -0.0019   -0.1149
          11   -0.0320    0.2049    0.1293   -0.1905    0.0845    0.3486   -0.2335   -0.0426
          12   -0.0494   -0.1386   -0.1712    0.0190    0.2074   -0.1339    0.0760   -0.1049
          13   -0.0385    0.0108    0.1066   -0.0460   -0.3140   -0.0309    0.0043   -0.1331
          14    0.0058   -0.1788    0.2445   -0.0519   -0.0258   -0.3619   -0.1968   -0.0301
          15    0.0122    0.1062   -0.0566    0.0860    0.0006    0.1467    0.1002   -0.0564
          16    0.0033   -0.0296   -0.0072   -0.0347   -0.0405   -0.0011    0.0421   -0.0713
          17   -0.0023   -0.1713    0.0544    0.0617   -0.0325   -0.0071    0.3381    0.0390
          18   -0.0035    0.1182    0.0516    0.0410   -0.0832    0.0119   -0.1445    0.0043
          19   -0.0059   -0.0587   -0.0900   -0.0865    0.0688    0.0287   -0.0180   -0.0497
          20    0.0008   -0.0632   -0.0752    0.0506   -0.0387    0.2577   -0.1697   -0.0013
          21    0.0074    0.0470    0.0656    0.0148   -0.0167   -0.1094    0.0746    0.0148
          22    0.0118   -0.0405   -0.0925   -0.0905    0.0649   -0.0286   -0.0089   -0.0865
          23    0.0104    0.1155   -0.1512   -0.0123    0.0226   -0.3118   -0.1663   -0.0191
          24    0.0292   -0.0745    0.0131   -0.0233    0.0916    0.1312    0.0614   -0.0061
          25   -0.0012    0.0320    0.0591   -0.0003   -0.1318    0.0265   -0.0039   -0.0526
          26   -0.0146    0.0884    0.0736   -0.0878    0.0460    0.3026   -0.1691   -0.0126
          27   -0.0244   -0.0667   -0.0863    0.0040    0.0906   -0.1204    0.0605   -0.0148
          28   -0.0071    0.0128    0.0668    0.0109   -0.1344   -0.0305   -0.0056   -0.0131
          29   -0.0024   -0.1098    0.1337   -0.0131   -0.0187   -0.2917   -0.1642   -0.0189
          30   -0.0024    0.0632   -0.0258    0.0372   -0.0183    0.1171    0.0746    0.0036
          31    0.0141   -0.0552   -0.0127   -0.0025   -0.0952    0.0121   -0.0328    0.2608
          32    0.0015   -0.0436   -0.1040    0.1336   -0.1132    0.0101   -0.0006    0.0031
          33    0.0646   -0.0015   -0.1176    0.0991   -0.1660    0.0117    0.0002    0.0282
          34   -0.1295   -0.0015   -0.0453   -0.0982    0.1266   -0.0196   -0.0033    0.2370
          35    0.0612   -0.0490   -0.1665    0.1915   -0.1791    0.0146   -0.0031    0.0094
          36    0.0459    0.0212    0.0344   -0.0336   -0.0365   -0.0017    0.0031    0.0082
          37    0.0016    0.2115    0.2358    0.6210    0.3880   -0.0006   -0.0330   -0.0484
          38    0.0038   -0.1559    0.3999   -0.1248    0.0608   -0.0062    0.0096    0.0292
          39   -0.0192    0.1307    0.2105   -0.1007   -0.2137   -0.0062    0.0188   -0.0633
          40   -0.0020   -0.0769   -0.0341   -0.1315   -0.1359    0.0030    0.0760   -0.2575
          41    0.0049   -0.3217    0.0905    0.0911   -0.0610    0.0154    0.4353    0.0719
          42    0.0047    0.2091    0.0923    0.0940   -0.1005   -0.0124   -0.1661   -0.0018
          43   -0.0137   -0.1352   -0.1910   -0.2273    0.0754    0.0393   -0.0000   -0.1951
          44   -0.0040   -0.1025   -0.1679    0.0798   -0.0593    0.3642   -0.2274    0.0356
          45   -0.0101    0.0788    0.1221    0.0431    0.0169   -0.1540    0.0939    0.0575
          46    0.0001   -0.0945   -0.1990   -0.2349    0.0690   -0.0272   -0.0053   -0.1656
          47    0.0209    0.2583   -0.3001   -0.0481    0.0523   -0.3503   -0.2459    0.0070
          48    0.0244   -0.1562    0.0156   -0.0263    0.2256    0.1472    0.0649    0.0326


   Root No.       9        10        11        12        13        14        15        16

                 9 A      10 A      11 A      12 A      13 A      14 A      15 A      16 A   

                 600.3     619.5     663.2     724.7     786.8     863.2     902.9     956.7
  
           1    0.0089   -0.0053    0.0163    0.1552   -0.0146   -0.0350    0.0070   -0.0065
           2   -0.0181   -0.0535    0.0173    0.3511   -0.0021   -0.0333    0.0111    0.0331
           3    0.0183   -0.0003    0.0050   -0.1002   -0.0168    0.0469   -0.0075   -0.0376
           4   -0.0052   -0.0000    0.1860   -0.0110    0.0144   -0.2583   -0.0000    0.0103
           5   -0.0090   -0.0176   -0.0097    0.2958   -0.0303   -0.2297    0.0028   -0.0123
           6    0.0017   -0.0031    0.0981    0.0918   -0.0191    0.7198    0.0066    0.0144
           7   -0.0288    0.0123   -0.4679    0.0366    0.0194   -0.0107   -0.0029   -0.0224
           8   -0.3234    0.1465    0.0256   -0.0807    0.1448   -0.0032    0.0110    0.1256
           9    0.1572    0.1362   -0.0003    0.0109   -0.0436   -0.0181    0.0030   -0.0120
          10    0.0801    0.3056   -0.0853    0.0668   -0.0070    0.0167    0.0280   -0.0023
          11    0.2812    0.0433    0.0963   -0.0600   -0.1360   -0.0020    0.1968   -0.3054
          12   -0.0508    0.3278    0.2062   -0.0712    0.0685    0.0058   -0.0714    0.1304
          13    0.0312    0.3107   -0.0276    0.1007   -0.0113    0.0318    0.0296    0.0158
          14   -0.2902   -0.1060    0.1382   -0.0435   -0.1488   -0.0242    0.2137    0.0940
          15    0.0581   -0.3140    0.3326   -0.0777    0.0494   -0.0350   -0.1003   -0.0739
          16    0.0255   -0.0009    0.1396   -0.0044    0.0359   -0.0094   -0.0009   -0.0429
          17    0.2707   -0.0255   -0.0038    0.0448    0.3944    0.0175    0.0080   -0.4134
          18   -0.1012    0.0895   -0.0022    0.0337   -0.1514   -0.0013   -0.0129    0.1605
          19   -0.0260   -0.0315   -0.1117   -0.0286    0.0407    0.0161    0.0321   -0.0363
          20   -0.2123   -0.0351    0.0045    0.0591    0.4382    0.0120    0.4428   -0.1615
          21    0.0656   -0.1145   -0.0468   -0.0220   -0.1846    0.0013   -0.1786    0.0844
          22    0.0206   -0.0597    0.0638   -0.0365    0.0250   -0.0007    0.0403    0.0636
          23    0.3259   -0.0262   -0.0059   -0.0125    0.2671   -0.0114    0.4054    0.4254
          24   -0.1146    0.1280   -0.0080   -0.0080   -0.1084   -0.0014   -0.1709   -0.1763
          25    0.0403    0.0584    0.0686    0.0280    0.0245    0.0093   -0.0291    0.0343
          26    0.3170   -0.0391   -0.0051    0.0313    0.3061   -0.0011   -0.3615    0.4229
          27   -0.1107    0.1238   -0.0005   -0.0411   -0.1176   -0.0023    0.1494   -0.1607
          28   -0.0198    0.0224   -0.0929    0.0639    0.0425    0.0154   -0.0416    0.0068
          29   -0.2278   -0.0226    0.0376    0.0535    0.4620    0.0102   -0.4222   -0.1087
          30    0.0690   -0.1230    0.0417   -0.0329   -0.1951   -0.0133    0.1680    0.0445
          31    0.0007    0.0432    0.0206   -0.4599    0.0510   -0.0696   -0.0055    0.0015
          32   -0.0024    0.0156   -0.0192   -0.1414    0.0164   -0.0556   -0.0013   -0.0009
          33   -0.0022    0.0197   -0.0108   -0.1917    0.0272    0.1149    0.0013    0.0151
          34   -0.0032   -0.0519    0.1179    0.5290   -0.0643    0.0089    0.0078   -0.0100
          35   -0.0016    0.0339   -0.0335   -0.3271    0.0421   -0.0837   -0.0043    0.0035
          36    0.0019   -0.0058    0.0133    0.0858   -0.0106    0.1416    0.0024    0.0051
          37    0.0022   -0.0014    0.0106   -0.0563   -0.0044    0.1505   -0.0006   -0.0002
          38   -0.0041    0.0054    0.0139   -0.0506    0.0006    0.1809    0.0003    0.0048
          39    0.0021   -0.0031   -0.0492    0.0655    0.0045   -0.4943   -0.0032   -0.0056
          40    0.0231   -0.0005    0.5126   -0.0341   -0.0184   -0.0422   -0.0120    0.0039
          41    0.2378   -0.1037   -0.0552   -0.0089   -0.1576    0.0000   -0.0153    0.2160
          42   -0.1430   -0.1876    0.0053    0.0207    0.0534   -0.0027    0.0049   -0.0600
          43   -0.0875   -0.3228   -0.0672   -0.0816   -0.0149    0.0181   -0.0217    0.0278
          44   -0.2921   -0.0498   -0.1291   -0.0027   -0.1005    0.0118   -0.1938    0.1340
          45    0.0618   -0.3210   -0.3388   -0.0183    0.0371    0.0424    0.0820   -0.0519
          46   -0.0276   -0.2966   -0.1107   -0.0541   -0.0180    0.0265   -0.0226   -0.0348
          47    0.2987    0.1118   -0.0890   -0.0473   -0.1392   -0.0027   -0.2393   -0.3272
          48   -0.0510    0.3224   -0.2240    0.0031    0.0708   -0.0019    0.0940    0.0812


   Root No.      17        18        19        20        21        22        23        24

                17 A      18 A      19 A      20 A      21 A      22 A      23 A      24 A   

                1002.7    1005.6    1048.9    1111.9    1156.1    1161.0    1177.0    1204.6
  
           1   -0.0331   -0.0033    0.0028   -0.0475   -0.0009   -0.0299    0.0179    0.0302
           2   -0.0101   -0.0109    0.0031    0.1288    0.3916   -0.0605   -0.0618   -0.4983
           3    0.0103    0.0017   -0.0090   -0.0612   -0.1544    0.0482    0.1136    0.2767
           4   -0.0819    0.0106    0.0028    0.0252    0.0709   -0.0075   -0.0360   -0.2337
           5   -0.0057    0.0019    0.0037   -0.0740   -0.2666    0.0258    0.0338    0.0107
           6    0.0328   -0.0045    0.0018    0.0087   -0.0488    0.0021   -0.0078   -0.0151
           7    0.4940   -0.0544   -0.0165    0.0503   -0.0101   -0.1768    0.0351   -0.0615
           8   -0.0337    0.0155    0.0226    0.1313   -0.0605    0.0333   -0.0145    0.0502
           9   -0.0080   -0.0027   -0.0035    0.3793   -0.0419    0.0238   -0.0590   -0.0166
          10   -0.1930    0.0003    0.0065    0.1483   -0.0833   -0.0025   -0.3066   -0.0106
          11   -0.1755   -0.3095   -0.0630   -0.0655    0.0089   -0.0640    0.0082   -0.0328
[...]
     175     136.17848     11.90050        148.07898   8.89982   172   %  1.3928
     176     136.14296     11.96318        148.10615   8.92698   173   %  1.3999
     177     136.17204     12.06003        148.23206   9.05290   174   %  1.4006
     178     136.12356     12.12294        148.24650   9.06734   175   %  1.4076
     179     136.16758     12.22270        148.39027   9.21111   176   %  1.4084
     180     136.11803     12.28661        148.40464   9.22547   177   %  1.4153
     181     136.15055     12.38619        148.53675   9.35758   178   %  1.4163
     182     136.11262     12.45010        148.56272   9.38356   179   %  1.4232
     183     136.15916     12.55048        148.70964   9.53048   180   %  1.4239
     184     136.10903     12.61496        148.72399   9.54482   181   %  1.4308
     185     136.10773     12.77215        148.87989   9.70072   182   %  1.4377
     186     136.14040     12.87158        149.01197   9.83281   183   %  1.4386
     187     136.14089     12.89385        149.03474   9.85558   184   %  1.4395
     188     136.09835     12.95995        149.05830   9.87914   185   %  1.4460
     190     136.09326     13.13827        149.23153  10.05237   186   %  1.4538
     192     136.10140     13.33887        149.44028  10.26112   187   %  1.4613
     193     136.13158     13.44298        149.57456  10.39540   188   %  1.4631
     194     136.08587     13.51024        149.59611  10.41695   189   %  1.4694
     195     136.13752     13.62765        149.76516  10.58600   190   %  1.4709
     196     136.08027     13.69457        149.77484  10.59568   191   %  1.4773
     197     136.13412     13.81438        149.94850  10.76934   192   %  1.4786
     198     136.07603     13.88192        149.95795  10.77879   193   %  1.4847
     199     136.12886     14.01138        150.14025  10.96109   194   %  1.4863
     200     136.07263     14.08055        150.15317  10.97401   195   %  1.4923
     201     136.13040     14.21612        150.34651  11.16735   196   %  1.4940
     202     136.06852     14.28629        150.35481  11.17564   197   %  1.4999
     203     136.11377     14.42357        150.53734  11.35818   198   %  1.5019
     204     136.06404     14.49363        150.55767  11.37851   199   %  1.5078
     206     136.05931     14.69860        150.75790  11.57874   200   %  1.5155


           INITIAL VELOCITY IN DRC (Angstroms/Femtosecond)
        -0.69759         0.07184         0.07325
         0.01878         0.00741         0.00245
         0.01214        -0.00851        -0.01142
         0.00600         0.00681         0.00982
         0.00767        -0.00155        -0.00329
        -0.00196         0.00155         0.00187
         0.00449        -0.00075        -0.00445
        -0.00808        -0.00662        -0.02089
         0.00141         0.01044         0.01729
         0.00485         0.00024         0.00102
        -0.01414        -0.00359        -0.04837
         0.09471        -0.04595        -0.03331
        -0.00034        -0.00039         0.00272
         0.00030        -0.00082        -0.00072
         0.00304         0.00041         0.00282
        -0.00035        -0.00471        -0.00508

 GEOMETRY PRIORITY, STEP = 0.0200 ANGSTROMS



     POINT   POTENTIAL  +  ENERGY LOST   =   TOTAL      ERROR    REF%   MOVEMENT
       1     139.17916      0.00000        139.17916   0.00000     1   %  0.0000
       3     139.15361      0.00023        139.15383  -0.02533     2   %  0.0344
       4     139.16700      0.31220        139.47920   0.30004     3   %  0.0348
       5     139.14492      0.36004        139.50496   0.32580     4   %  0.0364
       6     139.13418      0.39616        139.53035   0.35119     5   %  0.0472
       7     139.15051      0.43387        139.58438   0.40522     6   %  0.0534
       8     139.11992      0.51214        139.63206   0.45290     7   %  0.0683
      10     139.09216      0.55539        139.64755   0.46839     8   %  0.0782
      11     139.06224      0.59445        139.65669   0.47753     9   %  0.0871
      12     138.93926      0.63349        139.57275   0.39359    10   %  0.0973
      14     138.81810      0.75201        139.57011   0.39095    11   %  0.1248
      16     138.72742      0.83858        139.56600   0.38684    12   %  0.1436
      17     138.64682      0.93107        139.57789   0.39873    13   %  0.1626
      18     138.55501      1.02402        139.57903   0.39987    14   %  0.1816
      19     138.46852      1.10714        139.57566   0.39650    15   %  0.1992
      21     138.37883      1.19280        139.57163   0.39246    16   %  0.2190
      23     138.30833      1.25926        139.56759   0.38843    17   %  0.2361
      24     138.23365      1.32427        139.55792   0.37876    18   %  0.2550
      25     138.17377      1.37866        139.55243   0.37327    19   %  0.2725
      26     138.16804      1.38360        139.55164   0.37248    20   %  0.2742
      28     138.06526      1.46859        139.53384   0.35468    21   %  0.3037
      29     138.00432      1.51381        139.51813   0.33897    22   %  0.3198
      30     137.91561      1.59760        139.51321   0.33405    23   %  0.3515
      31     137.90437      1.61007        139.51444   0.33528    24   %  0.3555
      32     137.87132      1.65834        139.52966   0.35050    25   %  0.3678
      33     137.83198      1.73762        139.56959   0.39043    26   %  0.3816
      34     137.80246      1.79824        139.60069   0.42153    27   %  0.3911
      35     137.78854      1.85895        139.64749   0.46833    28   %  0.4001
      36     137.76802      1.92105        139.68907   0.50991    29   %  0.4095
      37     137.74619      1.98244        139.72863   0.54946    30   %  0.4187
      38     137.72154      2.04501        139.76655   0.58739    31   %  0.4282
      39     137.69822      2.10611        139.80433   0.62517    32   %  0.4374
      40     137.67182      2.16886        139.84068   0.66152    33   %  0.4470
      41     137.65086      2.22975        139.88061   0.70145    34   %  0.4562
      42     137.62603      2.29202        139.91805   0.73889    35   %  0.4659
      43     137.60618      2.35284        139.95902   0.77986    36   %  0.4752
      44     137.57651      2.41605        139.99256   0.81340    37   %  0.4848
      45     137.56457      2.45148        140.01605   0.83689    38   %  0.4902
      46     137.57263      2.54122        140.11385   0.93469    39   %  0.5034
      47     137.55175      2.60399        140.15574   0.97658    40   %  0.5125
      48     137.52589      2.66927        140.19517   1.01601    41   %  0.5222
      49     137.50648      2.73068        140.23716   1.05800    42   %  0.5310
      50     137.48027      2.79566        140.27593   1.09677    43   %  0.5409
      51     137.45995      2.85786        140.31781   1.13865    44   %  0.5497
      52     137.45492      2.88076        140.33568   1.15652    45   %  0.5529
      53     137.44712      2.94078        140.38790   1.20874    46   %  0.5620
      54     137.40645      3.04552        140.45197   1.27281    47   %  0.5802
      55     137.38506      3.10834        140.49341   1.31425    48   %  0.5890
      56     137.35269      3.17051        140.52319   1.34403    49   %  0.5993
      57     137.33173      3.23780        140.56953   1.39037    50   %  0.6081
      59     137.30695      3.30034        140.60729   1.42813    51   %  0.6179
      60     137.28572      3.36451        140.65023   1.47107    52   %  0.6263
      61     137.26662      3.41958        140.68620   1.50704    53   %  0.6348
      62     137.26139      3.49490        140.75629   1.57713    54   %  0.6444
      63     137.24037      3.56029        140.80066   1.62150    55   %  0.6533
      64     137.21986      3.62386        140.84372   1.66456    56   %  0.6622
      65     137.20157      3.68799        140.88956   1.71040    57   %  0.6706
      66     137.18398      3.75155        140.93553   1.75636    58   %  0.6796
      67     137.16641      3.81408        140.98049   1.80133    59   %  0.6874
      68     137.14661      3.87784        141.02445   1.84529    60   %  0.6966
      69     137.13015      3.93974        141.06989   1.89073    61   %  0.7039
      70     137.11034      4.00333        141.11367   1.93451    62   %  0.7131
      71     137.09442      4.06439        141.15881   1.97965    63   %  0.7199
      72     137.07413      4.12699        141.20112   2.02196    64   %  0.7294
      73     137.06073      4.18642        141.24715   2.06799    65   %  0.7359
      74     137.04098      4.24868        141.28965   2.11049    66   %  0.7453
      75     137.02652      4.30789        141.33441   2.15525    67   %  0.7513
      76     137.00814      4.36991        141.37805   2.19889    68   %  0.7609
      77     136.99454      4.42779        141.42233   2.24317    69   %  0.7666
      78     136.97698      4.48951        141.46649   2.28733    70   %  0.7762
      79     136.96418      4.54714        141.51132   2.33216    71   %  0.7815
      80     136.94488      4.60774        141.55262   2.37346    72   %  0.7909
      81     136.93026      4.66570        141.59595   2.41679    73   %  0.7961
      82     136.92691      4.68330        141.61021   2.43105    74   %  0.7980
      83     136.92024      4.74055        141.66078   2.48162    75   %  0.8075
      84     136.90761      4.80126        141.70887   2.52971    76   %  0.8126
      85     136.97189      4.85821        141.83009   2.65093    77   %  0.8220
      86     136.95029      4.92068        141.87097   2.69181    78   %  0.8267
      87     136.91906      5.01572        141.93478   2.75562    79   %  0.8383
      88     136.91153      5.03957        141.95110   2.77194    80   %  0.8406
      89     136.88834      5.09635        141.98469   2.80553    81   %  0.8496
      90     136.86776      5.15834        142.02609   2.84693    82   %  0.8544
      91     136.84995      5.24741        142.09736   2.91820    83   %  0.8652
      92     136.83616      5.30539        142.14155   2.96239    84   %  0.8733
      93     136.82818      5.36176        142.18995   3.01078    85   %  0.8785
      94     136.82369      5.39608        142.21977   3.04061    86   %  0.8816
      95     136.80680      5.47518        142.28198   3.10282    87   %  0.8917
      96     136.80213      5.51413        142.31627   3.13711    88   %  0.8950
      97     136.78631      5.57055        142.35686   3.17770    89   %  0.9042
      98     136.77793      5.63357        142.41150   3.23234    90   %  0.9084
      99     136.76574      5.69048        142.45622   3.27706    91   %  0.9175
     100     136.75747      5.75246        142.50994   3.33078    92   %  0.9215
     101     136.74260      5.80846        142.55106   3.37190    93   %  0.9306
     102     136.73849      5.87037        142.60886   3.42970    94   %  0.9345
     103     136.71977      5.97866        142.69843   3.51927    95   %  0.9465
     104     136.71914      5.98766        142.70680   3.52764    96   %  0.9474
     105     136.71437      6.04360        142.75797   3.57881    97   %  0.9564
     106     136.71202      6.10540        142.81742   3.63826    98   %  0.9601
     107     136.69875      6.20149        142.90024   3.72108    99   %  0.9706
     108     136.68322      6.25804        142.94127   3.76211   100   %  0.9788
     109     136.68119      6.31255        142.99374   3.81458   101   %  0.9825
     110     136.67909      6.34266        143.02175   3.84259   102   %  0.9849
     111     136.66338      6.42393        143.08731   3.90814   103   %  0.9944
     112     136.65350      6.48027        143.13377   3.95461   104   %  1.0005
     113     136.64512      6.53574        143.18086   4.00170   105   %  1.0062
     114     136.63941      6.59181        143.23122   4.05206   106   %  1.0111
     115     136.62729      6.64640        143.27369   4.09453   107   %  1.0178
     116     136.62774      6.69930        143.32704   4.14788   108   %  1.0210
     117     136.60912      6.75449        143.36361   4.18445   109   %  1.0295
     118     136.61265      6.81813        143.43079   4.25163   110   %  1.0327
     119     136.59750      6.92283        143.52033   4.34116   111   %  1.0431
     120     136.59635      6.93656        143.53291   4.35375   112   %  1.0443
     121     136.57894      7.03442        143.61335   4.43419   113   %  1.0542
     122     136.58688      7.05543        143.64232   4.46316   114   %  1.0558
     123     136.63681      7.11096        143.74777   4.56861   115   %  1.0640
     124     136.63850      7.17505        143.81354   4.63438   116   %  1.0677
     125     136.62390      7.23027        143.85417   4.67501   117   %  1.0756
     126     136.62429      7.29475        143.91904   4.73988   118   %  1.0791
     127     136.61131      7.35113        143.96244   4.78328   119   %  1.0870
     128     136.61775      7.41469        144.03244   4.85327   120   %  1.0903
     129     136.59999      7.47044        144.07043   4.89127   121   %  1.0983
     130     136.60694      7.53490        144.14183   4.96267   122   %  1.1015
     131     136.58558      7.59109        144.17667   4.99751   123   %  1.1092
     132     136.59299      7.65595        144.24894   5.06978   124   %  1.1124
     133     136.57146      7.71295        144.28441   5.10524   125   %  1.1201
     134     136.55328      7.81931        144.37259   5.19343   126   %  1.1293
     135     136.55802      7.87566        144.43368   5.25452   127   %  1.1322
     136     136.55739      7.89876        144.45615   5.27699   128   %  1.1338
     137     136.53582      7.95524        144.49106   5.31189   129   %  1.1413
     138     136.54378      8.01899        144.56277   5.38361   130   %  1.1443
     139     136.52259      8.07435        144.59693   5.41777   131   %  1.1517
     140     136.53120      8.13887        144.67008   5.49091   132   %  1.1548
     141     136.50932      8.19461        144.70393   5.52477   133   %  1.1620
     142     136.51940      8.25975        144.77915   5.59999   134   %  1.1650
     143     136.49652      8.31608        144.81261   5.63345   135   %  1.1722
     144     136.50706      8.38141        144.88848   5.70931   136   %  1.1752
     145     136.48471      8.43788        144.92259   5.74343   137   %  1.1824
     146     136.49500      8.50417        144.99917   5.82001   138   %  1.1853
     147     136.47240      8.56067        145.03307   5.85391   139   %  1.1923
     148     136.47561      8.62622        145.10183   5.92267   140   %  1.1952
     149     136.45341      8.68209        145.13550   5.95634   141   %  1.2021
     150     136.46391      8.74696        145.21087   6.03171   142   %  1.2050
     151     136.44172      8.80238        145.24411   6.06495   143   %  1.2119
     152     136.45764      8.86700        145.32464   6.14548   144   %  1.2147
     153     136.43546      8.92328        145.35874   6.17958   145   %  1.2216
     154     136.44675      8.98946        145.43620   6.25704   146   %  1.2243
     155     136.42417      9.04564        145.46982   6.29066   147   %  1.2310
     156     136.43604      9.11044        145.54648   6.36732   148   %  1.2337
     157     136.41369      9.16582        145.57951   6.40035   149   %  1.2404
     158     136.42503      9.22986        145.65489   6.47573   150   %  1.2431
     159     136.40294      9.28543        145.68838   6.50921   151   %  1.2498
     160     136.41468      9.35048        145.76516   6.58600   152   %  1.2523
     161     136.39236      9.40650        145.79886   6.61970   153   %  1.2590
     162     136.40474      9.47250        145.87724   6.69808   154   %  1.2615
     163     136.38197      9.52934        145.91131   6.73215   155   %  1.2681
     164     136.39430      9.59465        145.98895   6.80979   156   %  1.2705
     165     136.37184      9.65030        146.02214   6.84298   157   %  1.2770
     166     136.38441      9.71512        146.09954   6.92037   158   %  1.2794
     167     136.36187      9.77157        146.13344   6.95428   159   %  1.2860
     168     136.37401      9.83556        146.20957   7.03040   160   %  1.2882
     169     136.35225      9.89153        146.24378   7.06462   161   %  1.2947
     170     136.36469      9.95653        146.32123   7.14207   162   %  1.2968
     171     136.34272     10.01336        146.35609   7.17693   163   %  1.3033
     172     136.35484     10.07730        146.43213   7.25297   164   %  1.3054
     173     136.33354     10.13372        146.46726   7.28810   165   %  1.3119
     174     136.34536     10.19730        146.54266   7.36350   166   %  1.3138
     175     136.32449     10.25296        146.57745   7.39828   167   %  1.3202
     176     136.33623     10.31574        146.65197   7.47280   168   %  1.3221
     177     136.31643     10.37109        146.68752   7.50836   169   %  1.3285
     178     136.32851     10.43356        146.76207   7.58291   170   %  1.3302
     179     136.30827     10.48989        146.79816   7.61900   171   %  1.3367
     180     136.31987     10.55338        146.87326   7.69409   172   %  1.3383
     181     136.30543     10.62200        146.92743   7.74827   173   %  1.3446
     182     136.31506     10.67197        146.98703   7.80787   174   %  1.3463
     183     136.29492     10.72779        147.02271   7.84355   175   %  1.3526
     184     136.30662     10.79018        147.09680   7.91764   176   %  1.3541
     185     136.28780     10.84537        147.13316   7.95400   177   %  1.3604
     186     136.29872     10.90780        147.20652   8.02736   178   %  1.3619
     187     136.27970     10.96261        147.24232   8.06315   179   %  1.3681
     188     136.29177     11.02675        147.31853   8.13936   180   %  1.3695
     189     136.27164     11.08258        147.35422   8.17506   181   %  1.3757
     190     136.28419     11.14642        147.43061   8.25145   182   %  1.3772
     191     136.26383     11.20204        147.46587   8.28671   183   %  1.3833
     192     136.27911     11.26630        147.54541   8.36625   184   %  1.3847
     193     136.25608     11.32179        147.57787   8.39871   185   %  1.3907
     194     136.27183     11.38591        147.65773   8.47857   186   %  1.3922
     195     136.25079     11.44198        147.69277   8.51361   187   %  1.3982
     196     136.26418     11.50544        147.76962   8.59045   188   %  1.3995
     197     136.24610     11.56134        147.80744   8.62828   189   %  1.4056
     198     136.25743     11.62632        147.88375   8.70459   190   %  1.4068
     199     136.23368     11.68334        147.91703   8.73787   191   %  1.4129
     200     136.25053     11.74904        147.99957   8.82041   192   %  1.4140
     201     136.22650     11.80492        148.03142   8.85226   193   %  1.4199
     202     136.24388     11.86984        148.11372   8.93456   194   %  1.4212
     203     136.22220     11.92552        148.14771   8.96855   195   %  1.4270
     204     136.23757     11.99112        148.22869   9.04953   196   %  1.4283
     205     136.21265     12.04796        148.26062   9.08145   197   %  1.4341
     206     136.23038     12.11271        148.34310   9.16393   198   %  1.4354
     207     136.20593     12.16814        148.37406   9.19490   199   %  1.4411
     208     136.22406     12.23298        148.45704   9.27788   200   %  1.4423



 **********************
 *                    *
 * JOB ENDED NORMALLY *
 *                    *
 **********************



 TOTAL JOB TIME:            22.93 SECONDS

 == MOPAC DONE ==
