 *******************************************************************************
 ** Site#: 29054        For non-commercial use only    Version 18.022W 64BITS **
 *******************************************************************************
 ** Cite this program as: MOPAC2016, Version: 18.022W, James J. P. Stewart,   **
 ** Stewart Computational Chemistry, web: HTTP://OpenMOPAC.net. Days left: 365**
 *******************************************************************************
 **                                                                           **
 **                                MOPAC2016                                  **
 **                                                                           **
 *******************************************************************************

                              PM7 CALCULATION RESULTS


 *******************************************************************************
 *  CALCULATION DONE:                                Mon Jan 22 16:40:08 2018  *
 *  OPT        - OPTIMIZE COORDINATES OF ALL ATOMS
 *  XYZ        - CARTESIAN COORDINATE SYSTEM TO BE USED
 *  TS         - USE EF ROUTINE FOR TS SEARCH
 *  T=         - A TIME OF 172800.0 SECONDS REQUESTED
 *  DUMP=N     - RESTART FILE WRITTEN EVERY  7200.000 SECONDS
 *******************************************************************************
 TS opt xyz
 Refine transition state for hydrogen migration in propyl radical, and verify using FORCE

   ATOM                 CHEMICAL                   X               Y               Z
  NUMBER                 SYMBOL               (ANGSTROMS)     (ANGSTROMS)     (ANGSTROMS)
 
     1       C(HETATM    1  C1  HET A   1)   -0.01454486  *   0.13889070  *   0.04625270  *
     2       C(HETATM    3  C3  HET A   1)    2.14000580  *   1.51060250  *  -0.03641260  *
     3       H(HETATM    4 1H1  HET A   1)   -0.67741506  *  -0.47693280  *   0.62052640  *
     4       H(HETATM    5 2H1  HET A   1)   -0.51200640  *   0.82227920  *  -0.61241460  *
     5       H(HETATM    7  H2  HET A   1)    1.73276933  *  -0.14981220  *   1.33307850  *
     6       H(HETATM    8 1H3  HET A   1)    1.78334920  *   1.89624490  *  -0.99975130  *
     7       H(HETATM    9 2H3  HET A   1)    2.06412385  *   2.34122920  *   0.68281710  *
     8       H(HETATM   10 3H3  HET A   1)    3.20667280  *   1.27486190  *  -0.14643680  *
     9       C(HETATM    2  C2  HET A   1)    1.35821663  *   0.33485110  *   0.44051946  *
    10       H(HETATM    6 3H1  HET A   1)    1.04489625  *  -0.57946426  *  -0.55314218  *
 

 General Reference for PM7:
 "Optimization of Parameters for Semiempirical Methods VI: More Modifications to the 
 NDDO Approximations and Re-optimization of Parameters", J. J. P. Stewart, J. Mol. Mod., 1:32, 19 (2013)
 http://www.springerlink.com/openurl.asp?genre=article&id=doi:10.1007/s00894-012-1667-x

           Empirical Formula: C3 H7  =    10 atoms



      MOLECULAR POINT GROUP   :   C1  


          UHF CALCULATION, NO. OF ALPHA ELECTRONS =   10
                           NO. OF BETA  ELECTRONS =    9

          Transition state refinement using EF

          HESSIAN CALCULATED NUMERICALLY

 CYCLE:     1 TIME:   0.047 TIME LEFT:  2.00D  GRAD.:     3.848 HEAT:  47.35620
 CYCLE:     2 TIME:   0.000 TIME LEFT:  2.00D  GRAD.:     0.130 HEAT:  47.36245

     GRADIENT =  0.13031  IS LESS THAN CUTOFF =  1.00000



 -------------------------------------------------------------------------------
 TS opt xyz
 Refine transition state for hydrogen migration in propyl radical, and verify using FORCE



     GEOMETRY OPTIMISED USING EIGENVECTOR FOLLOWING (TS).     
     SCF FIELD WAS ACHIEVED                                   


                              PM7 CALCULATION
                                                       MOPAC2016 (Version: 18.022W)
                                                       Mon Jan 22 16:40:08 2018
                                                       No. of days remaining = 365




          FINAL HEAT OF FORMATION =         47.36245 KCAL/MOL =     198.16448 KJ/MOL


          TOTAL ENERGY            =       -460.54852 EV
          ELECTRONIC ENERGY       =      -1511.40736 EV  POINT GROUP:     C1  
          CORE-CORE REPULSION     =       1050.85885 EV
          COSMO AREA              =         93.61 SQUARE ANGSTROMS
          COSMO VOLUME            =         76.23 CUBIC ANGSTROMS

          GRADIENT NORM           =          0.13031
          IONIZATION POTENTIAL    =          7.740097 EV
          ALPHA SOMO LUMO (EV)    =         -7.740  3.490
          BETA  SOMO LUMO (EV)    =        -11.035  1.231
          NO. OF ALPHA ELECTRONS  =         10
          NO. OF BETA  ELECTRONS  =          9
          MOLECULAR WEIGHT        =         43.0883

          MOLECULAR DIMENSIONS (Angstroms)

            Atom       Atom       Distance
            H     8    H     3     4.32971
            H     5    H     4     2.85351
            H     7    H    10     2.74588


          SCF CALCULATIONS        =         33
 
          WALL-CLOCK TIME         =          0.078 SECONDS
          COMPUTATION TIME        =          0.265 SECONDS




   ATOM                 CHEMICAL                   X               Y               Z
  NUMBER                 SYMBOL               (ANGSTROMS)     (ANGSTROMS)     (ANGSTROMS)
 
     1       C(HETATM    1  C1  HET A   1)   -0.01406793  *   0.13795926  *   0.04539762  *
     2       C(HETATM    3  C3  HET A   1)    2.14041476  *   1.51071231  *  -0.03622826  *
     3       H(HETATM    4 1H1  HET A   1)   -0.67764725  *  -0.47713532  *   0.61931707  *
     4       H(HETATM    5 2H1  HET A   1)   -0.51227276  *   0.82184479  *  -0.61196885  *
     5       H(HETATM    7  H2  HET A   1)    1.73314422  *  -0.14956791  *   1.33384721  *
     6       H(HETATM    8 1H3  HET A   1)    1.78291401  *   1.89648586  *  -0.99924602  *
     7       H(HETATM    9 2H3  HET A   1)    2.06540941  *   2.34148874  *   0.68337853  *
     8       H(HETATM   10 3H3  HET A   1)    3.20670021  *   1.27469579  *  -0.14835189  *
     9       C(HETATM    2  C2  HET A   1)    1.35811012  *   0.33595227  *   0.44148899  *
    10       H(HETATM    6 3H1  HET A   1)    1.04145165  *  -0.58037104  *  -0.55333035  *

                             CARTESIAN COORDINATES

   1    C       -0.014067926     0.137959264     0.045397616
   2    C        2.140414761     1.510712310    -0.036228260
   3    H       -0.677647247    -0.477135316     0.619317070
   4    H       -0.512272759     0.821844785    -0.611968849
   5    H        1.733144220    -0.149567910     1.333847209
   6    H        1.782914010     1.896485865    -0.999246016
   7    H        2.065409406     2.341488737     0.683378532
   8    H        3.206700213     1.274695791    -0.148351890
   9    C        1.358110116     0.335952274     0.441488988
  10    H        1.041451650    -0.580371037    -0.553330353


           Empirical Formula: C3 H7  =    10 atoms



      MOLECULAR POINT GROUP   :   C1  


          ALPHA EIGENVALUES  
 -28.14701 -23.92736 -19.16794 -16.03970 -14.96315 -14.29623 -12.89438 -12.19994
 -11.70307  -7.74010   3.48993   4.55613   4.93815   5.77149   5.86895   6.17228
   6.54434   6.87431   7.02032


           BETA EIGENVALUES 
 -28.02891 -23.82029 -18.93961 -15.84788 -14.69499 -14.12905 -12.75265 -12.07129
 -11.03467   1.23068   3.59706   4.75317   5.25972   5.85572   5.94411   6.28032
   6.67701   6.99905   7.08411


              NET ATOMIC CHARGES AND DIPOLE CONTRIBUTIONS

  ATOM NO.                 TYPE                        CHARGE      No. of ELECS.   s-Pop       p-Pop       
    1          C(HETATM    1  C1  HET A   1)          -0.493716        4.4937     1.07295     3.42076
    2          C(HETATM    3  C3  HET A   1)          -0.423083        4.4231     1.04428     3.37880
    3          H(HETATM    4 1H1  HET A   1)           0.152370        0.8476     0.84763
    4          H(HETATM    5 2H1  HET A   1)           0.154508        0.8455     0.84549
    5          H(HETATM    7  H2  HET A   1)           0.148647        0.8514     0.85135
    6          H(HETATM    8 1H3  HET A   1)           0.142934        0.8571     0.85707
    7          H(HETATM    9 2H3  HET A   1)           0.154380        0.8456     0.84562
    8          H(HETATM   10 3H3  HET A   1)           0.141127        0.8589     0.85887
    9          C(HETATM    2  C2  HET A   1)          -0.284664        4.2847     1.06086     3.22380
   10          H(HETATM    6 3H1  HET A   1)           0.307498        0.6925     0.69250

          NET CHARGE ON RESIDUES

      Residue         Charge  Anion or
                              Cation?
      HET A   1       +0.000
 


 DIPOLE           X         Y         Z       TOTAL
 POINT-CHG.     0.656    -0.657    -0.783     1.215
 HYBRID         0.004     0.024    -0.071     0.075
 SUM            0.660    -0.633    -0.855     1.252


          ATOMIC ORBITAL ELECTRON POPULATIONS

                   Atom                  s        px        py        pz   
   C(HETATM    1  C1  HET A   1)   1.07295   1.00143   1.20663   1.21271
   C(HETATM    3  C3  HET A   1)   1.04428   1.12751   1.09035   1.16094
   H(HETATM    4 1H1  HET A   1)   0.84763
   H(HETATM    5 2H1  HET A   1)   0.84549
   H(HETATM    7  H2  HET A   1)   0.85135
   H(HETATM    8 1H3  HET A   1)   0.85707
   H(HETATM    9 2H3  HET A   1)   0.84562
   H(HETATM   10 3H3  HET A   1)   0.85887
   C(HETATM    2  C2  HET A   1)   1.06086   1.04874   1.06999   1.10508
   H(HETATM    6 3H1  HET A   1)   0.69250


                    (SZ)    =    0.500000
                    (S**2)  =    0.768069


          ATOMIC ORBITAL SPIN POPULATIONS

    Atom   Total    s     px     py     pz   
         Atomic
    1  C  0.5888  0.025  0.056  0.255  0.252
    2  C -0.0205 -0.003 -0.006 -0.007 -0.004
    3  H -0.0136 -0.014
    4  H -0.0142 -0.014
    5  H -0.0124 -0.012
    6  H  0.0022  0.002
    7  H  0.0161  0.016
    8  H  0.0046  0.005
    9  C  0.5564  0.023  0.051  0.232  0.251
   10  H -0.1075 -0.107
 *******************************************************************************
 ** Site#: 29054        For non-commercial use only    Version 18.022W 64BITS **
 *******************************************************************************
 ** Cite this program as: MOPAC2016, Version: 18.022W, James J. P. Stewart,   **
 ** Stewart Computational Chemistry, web: HTTP://OpenMOPAC.net. Days left: 365**
 *******************************************************************************
 **                                                                           **
 **                                MOPAC2016                                  **
 **                                                                           **
 *******************************************************************************

                              PM7 CALCULATION RESULTS


 *******************************************************************************
 *  CALCULATION DONE:                                Mon Jan 22 16:40:08 2018  *
 *  OLDGEO     - PREVIOUS GEOMETRY TO BE USED
 *  FORCE      - FORCE CALCULATION SPECIFIED
 *  T=         - A TIME OF 172800.0 SECONDS REQUESTED
 *  DUMP=N     - RESTART FILE WRITTEN EVERY  7200.000 SECONDS
 *  ISOTOPE    - FORCE MATRIX WRITTEN TO DISK (CHAN. 9 )
 *******************************************************************************
oldgeo force isotope
 Refine transition state for hydrogen migration in propyl radical, and verify using FORCE

   ATOM                 CHEMICAL                   X               Y               Z
  NUMBER                 SYMBOL               (ANGSTROMS)     (ANGSTROMS)     (ANGSTROMS)
 
     1       C(HETATM    1  C1  HET A   1)   -0.01406793  *   0.13795926  *   0.04539762  *
     2       C(HETATM    3  C3  HET A   1)    2.14041476  *   1.51071231  *  -0.03622826  *
     3       H(HETATM    4 1H1  HET A   1)   -0.67764725  *  -0.47713532  *   0.61931707  *
     4       H(HETATM    5 2H1  HET A   1)   -0.51227276  *   0.82184479  *  -0.61196885  *
     5       H(HETATM    7  H2  HET A   1)    1.73314422  *  -0.14956791  *   1.33384721  *
     6       H(HETATM    8 1H3  HET A   1)    1.78291401  *   1.89648586  *  -0.99924602  *
     7       H(HETATM    9 2H3  HET A   1)    2.06540941  *   2.34148874  *   0.68337853  *
     8       H(HETATM   10 3H3  HET A   1)    3.20670021  *   1.27469579  *  -0.14835189  *
     9       C(HETATM    2  C2  HET A   1)    1.35811012  *   0.33595227  *   0.44148899  *
    10       H(HETATM    6 3H1  HET A   1)    1.04145165  *  -0.58037104  *  -0.55333035  *
 

 General Reference for PM7:
 "Optimization of Parameters for Semiempirical Methods VI: More Modifications to the 
 NDDO Approximations and Re-optimization of Parameters", J. J. P. Stewart, J. Mol. Mod., 1:32, 19 (2013)
 http://www.springerlink.com/openurl.asp?genre=article&id=doi:10.1007/s00894-012-1667-x

           Empirical Formula: C3 H7  =    10 atoms



      MOLECULAR POINT GROUP   :   C1  


          UHF CALCULATION, NO. OF ALPHA ELECTRONS =   10
                           NO. OF BETA  ELECTRONS =    9


          HEAT OF FORMATION =      47.362448 KCALS/MOLE


          CARTESIAN COORDINATE DERIVATIVES

   NUMBER  ATOM         X            Y            Z

     1       C      0.049710     0.007609    -0.050633
     2       C      0.043566     0.033140    -0.037399
     3       H     -0.018911    -0.029289     0.022669
     4       H     -0.024957    -0.007213     0.025095
     5       H     -0.009829    -0.012636     0.010719
     6       H     -0.018556    -0.010085     0.011245
     7       H     -0.014028    -0.002587    -0.001619
     8       H     -0.022791    -0.015545     0.010815
     9       C      0.062500     0.028546     0.020234
    10       H     -0.046705     0.008059    -0.011127
 


          GRADIENT NORM =   0.14849

          MOLECULAR WEIGHT =   43.09



          ROTATIONAL CONSTANTS IN CM(-1)

          A =    1.26988281   B =    0.29069412   C =    0.25971973



           PRINCIPAL MOMENTS OF INERTIA IN UNITS OF 10**(-40)*GRAM-CM**2

          A =       22.0436   B =       96.2963   C =      107.7807


          ORIENTATION OF MOLECULE IN FORCE CALCULATION

    NO.       ATOM         X         Y         Z

     1          C      -1.2856   -0.1768   -0.1422
     2          C       1.2704   -0.1768   -0.1422
     3          H      -2.1936    0.3920   -0.1422
     4          H      -1.3172   -1.0489   -0.7638
     5          H      -0.0084    1.4347    0.6109
     6          H       1.2070   -1.2498   -0.3629
     7          H       1.6304    0.3131   -1.0610
     8          H       2.0460   -0.0405    0.6227
     9          C      -0.0353    0.4039    0.2801
    10          H      -0.7625   -0.4005    1.1481


    FIRST DERIVATIVES WILL BE USED IN THE CALCULATION OF SECOND DERIVATIVES

    FOR POINT-GROUP C1   THERE ARE   1 UNIQUE SYMMETRY FUNCTIONS.

 STEP:   1 TIME =     0.02 SECS, INTEGRAL =      0.02 TIME LEFT: 172799.98
 STEP:   2 TIME =     0.00 SECS, INTEGRAL =      0.02 TIME LEFT: 172799.98
 STEP:   3 TIME =     0.00 SECS, INTEGRAL =      0.02 TIME LEFT: 172799.98
 STEP:   4 TIME =     0.00 SECS, INTEGRAL =      0.02 TIME LEFT: 172799.98
 STEP:   5 TIME =     0.02 SECS, INTEGRAL =      0.03 TIME LEFT: 172799.97
 STEP:   6 TIME =     0.00 SECS, INTEGRAL =      0.03 TIME LEFT: 172799.97
 STEP:   7 TIME =     0.00 SECS, INTEGRAL =      0.03 TIME LEFT: 172799.97
 STEP:   8 TIME =     0.02 SECS, INTEGRAL =      0.05 TIME LEFT: 172799.95
 STEP:   9 TIME =     0.00 SECS, INTEGRAL =      0.05 TIME LEFT: 172799.95
 STEP:  10 TIME =     0.00 SECS, INTEGRAL =      0.05 TIME LEFT: 172799.95
 STEP:  11 TIME =     0.02 SECS, INTEGRAL =      0.06 TIME LEFT: 172799.94
 STEP:  12 TIME =     0.00 SECS, INTEGRAL =      0.06 TIME LEFT: 172799.94
 STEP:  13 TIME =     0.00 SECS, INTEGRAL =      0.06 TIME LEFT: 172799.94
 STEP:  14 TIME =     0.00 SECS, INTEGRAL =      0.06 TIME LEFT: 172799.94
 STEP:  15 TIME =     0.02 SECS, INTEGRAL =      0.08 TIME LEFT: 172799.92
 STEP:  16 TIME =     0.00 SECS, INTEGRAL =      0.08 TIME LEFT: 172799.92
 STEP:  17 TIME =     0.00 SECS, INTEGRAL =      0.08 TIME LEFT: 172799.92
 STEP:  18 TIME =     0.00 SECS, INTEGRAL =      0.08 TIME LEFT: 172799.92
 STEP:  19 TIME =     0.00 SECS, INTEGRAL =      0.08 TIME LEFT: 172799.92
 STEP:  20 TIME =     0.00 SECS, INTEGRAL =      0.08 TIME LEFT: 172799.92
 STEP:  21 TIME =     0.00 SECS, INTEGRAL =      0.08 TIME LEFT: 172799.92
 STEP:  22 TIME =     0.00 SECS, INTEGRAL =      0.08 TIME LEFT: 172799.92
 STEP:  23 TIME =     0.00 SECS, INTEGRAL =      0.08 TIME LEFT: 172799.92
 STEP:  24 TIME =     0.00 SECS, INTEGRAL =      0.08 TIME LEFT: 172799.92
 STEP:  25 TIME =     0.02 SECS, INTEGRAL =      0.09 TIME LEFT: 172799.91
 STEP:  26 TIME =     0.00 SECS, INTEGRAL =      0.09 TIME LEFT: 172799.91
 STEP:  27 TIME =     0.00 SECS, INTEGRAL =      0.09 TIME LEFT: 172799.91
 STEP:  28 TIME =     0.00 SECS, INTEGRAL =      0.09 TIME LEFT: 172799.91
 STEP:  29 TIME =     0.02 SECS, INTEGRAL =      0.11 TIME LEFT: 172799.89
 STEP:  30 TIME =     0.00 SECS, INTEGRAL =      0.11 TIME LEFT: 172799.89

(To convert to Hartree/Bohr^2, multiply by (10^(-21) x N x a0^2)/(4.184 x 627.51) =  0.0642)


           FORCE MATRIX IN MILLIDYNES/ANGSTROM


                  C  1       C  2       H  3       H  4       H  5       H  6
 ------------------------------------------------------------------------------
     C    1  11.155266
     C    2   0.665900  11.666702
     H    3   3.616733   0.049942   4.339883
     H    4   3.621401   0.024487   0.459332   4.343792
     H    5   0.662038   0.673025   0.019359   0.057705   4.386094
     H    6   0.009358   3.419654   0.002970   0.016841   0.045385   4.226878
     H    7   0.016807   3.373831   0.005003   0.006747   0.015083   0.464426
     H    8   0.043470   3.406800   0.008669   0.003209   0.017567   0.465440
     C    9   7.310674   3.909148   0.657013   0.656730   3.490279   0.709425
     H   10   3.107431   0.366478   0.253615   0.241880   0.259161   0.021331


                  H  7       H  8       C  9       H 10
 ------------------------------------------------------
     H    7   4.188607
     H    8   0.467766   4.217861
     C    9   0.724037   0.716901  12.156817
     H   10   0.032195   0.013907   3.250986   3.600607


          HEAT OF FORMATION =      47.362448 KCALS/MOLE

          ZERO POINT ENERGY      49.911 KCAL/MOL

         NOTE: SYSTEM IS NOT A GROUND STATE, THEREFORE ZERO POINT
         ENERGY IS NOT MEANINGFULL. ZERO POINT ENERGY PRINTED
         DOES NOT INCLUDE THE  1 IMAGINARY FREQUENCIES


           NORMAL COORDINATE ANALYSIS (Total motion = 1 Angstrom)


   Root No.       1         2         3         4         5         6         7         8

                 1 A       2 A       3 A       4 A       5 A       6 A       7 A       8 A   

               -2139.9     113.6     393.3     480.5     857.6     929.0    1010.1    1025.0
  
           1   -0.0183    0.0023    0.0545    0.0154   -0.0033   -0.0327   -0.0184    0.0354
           2    0.0160    0.0139   -0.0179   -0.0113    0.0033    0.0240    0.0031    0.0212
           3   -0.0642   -0.0192   -0.0170    0.0021   -0.0001    0.0090   -0.0348   -0.0211
           4    0.0018   -0.0016   -0.0501   -0.0160   -0.0017    0.0254    0.0382   -0.0425
           5    0.0001    0.0020   -0.0151   -0.0150    0.0058   -0.0177    0.0048   -0.0251
           6   -0.0024   -0.0029   -0.0185    0.0118   -0.0070   -0.0144    0.0281    0.0165
           7   -0.0149    0.0050    0.0236   -0.0606    0.0003   -0.1532   -0.0766   -0.0041
           8   -0.0131    0.0182   -0.0724   -0.1333    0.0023   -0.1967   -0.0914   -0.0424
           9    0.0283    0.0008   -0.1409    0.2328   -0.0618   -0.0273    0.1349    0.1398
          10   -0.0081    0.0066    0.1649    0.0565   -0.0189    0.1999   -0.0836   -0.0254
          11   -0.0225    0.0483   -0.0556    0.1124   -0.1052    0.0182   -0.0855   -0.0810
          12    0.0212   -0.0678    0.0249   -0.1731    0.1504   -0.0206    0.1009    0.1281
          13   -0.0033    0.0022    0.0028   -0.0093    0.0018    0.0877   -0.0307    0.0654
          14    0.0072   -0.0330    0.0416    0.0303   -0.0909   -0.0340    0.0016   -0.0114
          15   -0.0347    0.0813    0.0385    0.0020    0.3012    0.0822    0.0253    0.0177
          16    0.0031    0.0543   -0.1343   -0.0659   -0.0497    0.1024   -0.1092    0.1657
          17   -0.0003   -0.0430   -0.0079   -0.0216   -0.0075   -0.0146    0.0185   -0.0059
          18   -0.0022    0.2015   -0.0405    0.0495    0.0509   -0.0114   -0.0343   -0.0641
          19   -0.0046   -0.1363   -0.0832    0.0400    0.0936    0.0329   -0.0878   -0.1377
          20    0.0010   -0.1397   -0.0213   -0.0712   -0.0745    0.0174    0.0010    0.1273
          21    0.0016   -0.1318   -0.0354    0.0072   -0.0033    0.0093   -0.0322    0.0394
          22   -0.0001    0.0698    0.0079   -0.0333   -0.0466   -0.0102    0.1789   -0.0587
          23    0.0006    0.1990   -0.0866   -0.0325   -0.0062    0.0326   -0.1109    0.1017
          24   -0.0023   -0.1108   -0.0686    0.0330    0.0453    0.0167   -0.1218    0.0194
          25   -0.0349    0.0004    0.0006   -0.0034   -0.0018   -0.0073    0.0027    0.0066
          26   -0.0391   -0.0152    0.0450    0.0440    0.0208   -0.0020    0.0122   -0.0019
          27    0.0462    0.0265    0.0513   -0.0225   -0.0301   -0.0024    0.0030   -0.0174
          28    0.6402   -0.0150   -0.0407    0.1207    0.1003   -0.0860   -0.0595    0.0005
          29    0.3023   -0.0579    0.0594   -0.0953   -0.0753    0.1254    0.0268   -0.0185
          30    0.2323   -0.0251    0.0337   -0.0487   -0.0406    0.0443   -0.0280   -0.0181


   Root No.       9        10        11        12        13        14        15        16

                 9 A      10 A      11 A      12 A      13 A      14 A      15 A      16 A   

                1062.7    1084.8    1206.1    1283.4    1290.1    1293.0    1369.7    1391.7
  
           1    0.0244    0.0067   -0.0169   -0.0159   -0.0091    0.0069   -0.0291   -0.0168
           2   -0.0233    0.0234   -0.0437   -0.0209   -0.0139    0.0096   -0.0157   -0.0085
           3   -0.0135   -0.0252   -0.0191   -0.0083   -0.0045    0.0035   -0.0158   -0.0053
           4   -0.0141    0.0003    0.0489   -0.0155    0.0149    0.0031    0.0103   -0.0630
           5    0.0185    0.0143   -0.0604    0.0064    0.0311    0.0058    0.0001    0.0267
           6   -0.0106   -0.0355   -0.0370   -0.0086    0.0055   -0.0277    0.0004    0.0164
           7    0.0469   -0.0485    0.0374   -0.0089   -0.0046    0.0078    0.1496   -0.0120
           8    0.0342   -0.0712    0.0717   -0.0089   -0.0038    0.0106    0.2712   -0.0068
           9    0.1506    0.0977    0.0180   -0.0240   -0.0168    0.0163    0.2083   -0.0085
          10   -0.0968   -0.0110   -0.1843   -0.0611   -0.0452    0.0353    0.3418   -0.0158
          11    0.0313   -0.0810   -0.0089   -0.0136   -0.0056    0.0018   -0.0800   -0.0042
          12   -0.0636    0.1212   -0.0285   -0.0148   -0.0119    0.0113    0.0591   -0.0077
          13    0.0170   -0.0210   -0.0376    0.3245    0.2228   -0.1428    0.0717    0.0078
          14   -0.0531    0.0393    0.0639    0.0047    0.0075   -0.0047   -0.0039    0.0130
          15    0.1235   -0.1229    0.0598   -0.0270   -0.0169    0.0133   -0.0045    0.0016
          16   -0.0460   -0.0276    0.2101   -0.0816    0.0777    0.1067    0.0053    0.3043
          17    0.0047   -0.0084   -0.0433   -0.0205    0.0245   -0.0661    0.0039    0.0094
          18    0.0365    0.0658   -0.0292    0.1694   -0.0397    0.2769   -0.0117   -0.0372
          19    0.0601    0.1554    0.0494    0.0674   -0.1828   -0.0988    0.0221    0.1875
          20   -0.0363   -0.0848    0.0380    0.1564   -0.1336    0.1496   -0.0211   -0.1531
          21   -0.0043   -0.0050    0.0264    0.1073   -0.1514    0.0241   -0.0033    0.0111
          22   -0.0521   -0.0965   -0.0244    0.0568   -0.1180   -0.0059    0.0303    0.1471
          23    0.0070    0.0156    0.0604    0.0134   -0.1626   -0.2469   -0.0154   -0.1543
          24    0.0377    0.0795    0.0206   -0.0690    0.1630    0.0376   -0.0244   -0.1487
          25    0.0081    0.0019   -0.0340    0.0050   -0.0023   -0.0016   -0.0310    0.0271
          26   -0.0150   -0.0156    0.0868    0.0058    0.0071   -0.0031    0.0042    0.0056
          27   -0.0083    0.0436    0.0520    0.0076    0.0069   -0.0084   -0.0026    0.0063
          28   -0.1496   -0.0567   -0.0258    0.0170    0.0083   -0.0022   -0.0279    0.0096
          29    0.2480   -0.0731    0.0238   -0.0272   -0.0170    0.0097   -0.0184    0.0121
          30    0.1061   -0.0332   -0.0178   -0.0316   -0.0199    0.0095   -0.0084   -0.0173


   Root No.      17        18        19        20        21        22        23        24

                17 A      18 A      19 A      20 A      21 A      22 A      23 A      24 A   

                1452.6    2249.3    2669.5    2678.1    2730.8    2764.7    2781.1    2796.1
  
           1   -0.0898   -0.0264   -0.0003    0.0009   -0.0227    0.0074    0.0044   -0.0244
           2   -0.0357    0.0005   -0.0000    0.0006    0.0366   -0.0111   -0.0020   -0.0100
           3   -0.0238   -0.0390   -0.0004    0.0004    0.0161   -0.0036    0.0008   -0.0157
           4   -0.0254   -0.0005    0.0011   -0.0239    0.0000   -0.0070    0.0153    0.0031
           5   -0.0031   -0.0010    0.0299   -0.0332   -0.0019   -0.0023   -0.0090   -0.0022
           6    0.0004    0.0002   -0.0360   -0.0286   -0.0006    0.0001   -0.0052   -0.0014
           7   -0.0270   -0.0107   -0.0017    0.0007    0.3167   -0.1103   -0.0691    0.3073
           8    0.0364   -0.0037    0.0008   -0.0000   -0.1747    0.0625    0.0407   -0.1913
           9    0.0167   -0.0092    0.0002    0.0001    0.0116   -0.0025   -0.0004   -0.0040
          10    0.0679   -0.0110    0.0000    0.0001   -0.0333    0.0101    0.0018    0.0130
          11   -0.0379   -0.0032   -0.0011   -0.0015   -0.2974    0.0561   -0.0242    0.3146
          12   -0.0189   -0.0100   -0.0005   -0.0013   -0.2166    0.0422   -0.0161    0.2196
          13   -0.1244    0.0097    0.0018   -0.0048    0.0029    0.0140    0.0026    0.0037
          14    0.0247    0.0033    0.0231   -0.0634    0.1604    0.4080    0.1312    0.0645
          15    0.0178   -0.0053    0.0074   -0.0205    0.0531    0.1354    0.0438    0.0212
          16   -0.0587    0.0047   -0.0076    0.0030   -0.0005   -0.0083    0.0142    0.0018
          17   -0.0047    0.0053   -0.2194    0.4075    0.0065   -0.0642    0.2504    0.0488
          18    0.0084    0.0017   -0.0682    0.0736    0.0012   -0.0127    0.0513    0.0103
          19   -0.0921   -0.0021   -0.1727   -0.0169    0.0036    0.0356   -0.0723   -0.0130
          20    0.0697    0.0110   -0.1963   -0.0227    0.0043    0.0479   -0.0997   -0.0178
          21   -0.0034   -0.0112    0.3934   -0.0047   -0.0103   -0.0937    0.1850    0.0329
          22   -0.1120   -0.0021    0.1613    0.3123    0.0118    0.0917   -0.1640   -0.0260
          23    0.0858    0.0015    0.0406    0.0331    0.0011    0.0141   -0.0299   -0.0052
          24    0.1022    0.0061    0.1324    0.2923    0.0111    0.0899   -0.1629   -0.0262
          25    0.1408    0.0356    0.0009   -0.0018   -0.0022   -0.0027    0.0045   -0.0017
          26    0.0185    0.0296   -0.0001    0.0027   -0.0097   -0.0296   -0.0112   -0.0054
          27    0.0213   -0.0210   -0.0031   -0.0001   -0.0031   -0.0101   -0.0044   -0.0031
          28    0.0411   -0.0917   -0.0016    0.0016   -0.0060   -0.0057   -0.0002   -0.0128
          29    0.0690   -0.3611   -0.0030    0.0030    0.0010   -0.0115   -0.0034   -0.0033
          30   -0.0965    0.7415    0.0063   -0.0028    0.0031    0.0034    0.0036   -0.0126


           MASS-WEIGHTED COORDINATE ANALYSIS (NORMAL COORDINATES)


   Root No.       1         2         3         4         5         6         7         8

                 1 A       2 A       3 A       4 A       5 A       6 A       7 A       8 A   

               -2139.9     113.6     393.3     480.5     857.6     929.0    1010.1    1025.0
  
           1   -0.0768    0.0181    0.3827    0.1171   -0.0261   -0.2571   -0.1447    0.2769
           2    0.0673    0.1089   -0.1259   -0.0860    0.0258    0.1888    0.0242    0.1658
           3   -0.2703   -0.1505   -0.1193    0.0159   -0.0005    0.0707   -0.2740   -0.1647
           4    0.0076   -0.0123   -0.3520   -0.1217   -0.0131    0.1997    0.3005   -0.3326
           5    0.0002    0.0153   -0.1061   -0.1138    0.0456   -0.1391    0.0381   -0.1966
           6   -0.0102   -0.0230   -0.1297    0.0894   -0.0543   -0.1129    0.2212    0.1288
           7   -0.0182    0.0113    0.0481   -0.1334    0.0006   -0.3483   -0.1746   -0.0093
           8   -0.0160    0.0411   -0.1472   -0.2931    0.0052   -0.4474   -0.2084   -0.0960
           9    0.0345    0.0018   -0.2867    0.5120   -0.1400   -0.0622    0.3074    0.3166
          10   -0.0099    0.0149    0.3355    0.1241   -0.0428    0.4545   -0.1905   -0.0574
          11   -0.0274    0.1094   -0.1131    0.2473   -0.2381    0.0413   -0.1949   -0.1835
          12    0.0258   -0.1535    0.0507   -0.3806    0.3403   -0.0469    0.2299    0.2902
          13   -0.0040    0.0050    0.0057   -0.0205    0.0040    0.1996   -0.0699    0.1482
          14    0.0088   -0.0747    0.0847    0.0667   -0.2056   -0.0773    0.0037   -0.0258
          15   -0.0423    0.1841    0.0784    0.0045    0.6818    0.1869    0.0577    0.0400
          16    0.0037    0.1229   -0.2733   -0.1449   -0.1126    0.2328   -0.2489    0.3752
          17   -0.0003   -0.0975   -0.0160   -0.0474   -0.0170   -0.0332    0.0422   -0.0134
          18   -0.0027    0.4563   -0.0824    0.1088    0.1151   -0.0259   -0.0781   -0.1451
          19   -0.0056   -0.3087   -0.1693    0.0879    0.2119    0.0749   -0.2000   -0.3118
          20    0.0013   -0.3163   -0.0434   -0.1566   -0.1686    0.0395    0.0023    0.2882
          21    0.0019   -0.2986   -0.0721    0.0158   -0.0076    0.0212   -0.0735    0.0893
          22   -0.0001    0.1580    0.0161   -0.0731   -0.1054   -0.0233    0.4077   -0.1329
          23    0.0008    0.4507   -0.1762   -0.0714   -0.0139    0.0742   -0.2529    0.2304
          24   -0.0028   -0.2509   -0.1396    0.0725    0.1025    0.0381   -0.2776    0.0439
          25   -0.1469    0.0030    0.0042   -0.0260   -0.0138   -0.0570    0.0214    0.0520
          26   -0.1647   -0.1189    0.3160    0.3342    0.1628   -0.0157    0.0961   -0.0150
          27    0.1943    0.2075    0.3600   -0.1708   -0.2349   -0.0192    0.0233   -0.1362
          28    0.7803   -0.0340   -0.0828    0.2655    0.2271   -0.1955   -0.1356    0.0011
          29    0.3685   -0.1311    0.1209   -0.2097   -0.1705    0.2853    0.0612   -0.0419
          30    0.2830   -0.0569    0.0686   -0.1071   -0.0918    0.1007   -0.0639   -0.0410


   Root No.       9        10        11        12        13        14        15        16

                 9 A      10 A      11 A      12 A      13 A      14 A      15 A      16 A   

                1062.7    1084.8    1206.1    1283.4    1290.1    1293.0    1369.7    1391.7
  
           1    0.1914    0.0552   -0.0968   -0.1189   -0.0665    0.0502   -0.1819   -0.1070
           2   -0.1825    0.1931   -0.2502   -0.1568   -0.1019    0.0700   -0.0983   -0.0542
           3   -0.1059   -0.2077   -0.1093   -0.0623   -0.0329    0.0257   -0.0989   -0.0338
           4   -0.1101    0.0021    0.2799   -0.1165    0.1091    0.0230    0.0644   -0.4006
           5    0.1450    0.1183   -0.3461    0.0479    0.2282    0.0427    0.0006    0.1700
           6   -0.0829   -0.2924   -0.2121   -0.0641    0.0403   -0.2030    0.0025    0.1041
           7    0.1063   -0.1159    0.0620   -0.0193   -0.0097    0.0165    0.2712   -0.0221
           8    0.0776   -0.1702    0.1190   -0.0194   -0.0080    0.0224    0.4917   -0.0125
           9    0.3417    0.2333    0.0299   -0.0520   -0.0357    0.0345    0.3776   -0.0157
          10   -0.2195   -0.0262   -0.3059   -0.1327   -0.0960    0.0748    0.6196   -0.0291
          11    0.0710   -0.1936   -0.0148   -0.0294   -0.0120    0.0038   -0.1451   -0.0078
          12   -0.1442    0.2897   -0.0473   -0.0321   -0.0252    0.0240    0.1072   -0.0142
          13    0.0386   -0.0501   -0.0624    0.7047    0.4729   -0.3027    0.1300    0.0144
          14   -0.1204    0.0939    0.1060    0.0103    0.0160   -0.0100   -0.0072    0.0240
          15    0.2801   -0.2937    0.0993   -0.0587   -0.0359    0.0281   -0.0081    0.0029
          16   -0.1043   -0.0659    0.3486   -0.1772    0.1649    0.2261    0.0095    0.5604
          17    0.0107   -0.0200   -0.0718   -0.0445    0.0520   -0.1400    0.0070    0.0174
          18    0.0828    0.1572   -0.0485    0.3678   -0.0844    0.5869   -0.0213   -0.0686
          19    0.1363    0.3713    0.0820    0.1463   -0.3880   -0.2094    0.0401    0.3452
          20   -0.0823   -0.2027    0.0631    0.3397   -0.2836    0.3170   -0.0383   -0.2819
          21   -0.0097   -0.0119    0.0438    0.2330   -0.3215    0.0510   -0.0060    0.0204
          22   -0.1181   -0.2307   -0.0405    0.1233   -0.2505   -0.0124    0.0550    0.2709
          23    0.0160    0.0374    0.1003    0.0291   -0.3451   -0.5233   -0.0279   -0.2841
          24    0.0855    0.1899    0.0342   -0.1498    0.3461    0.0796   -0.0443   -0.2738
          25    0.0635    0.0160   -0.1951    0.0378   -0.0169   -0.0118   -0.1939    0.1724
          26   -0.1175   -0.1290    0.4975    0.0432    0.0523   -0.0230    0.0262    0.0357
          27   -0.0652    0.3596    0.2978    0.0571    0.0502   -0.0614   -0.0166    0.0400
          28   -0.3393   -0.1355   -0.0429    0.0369    0.0177   -0.0047   -0.0506    0.0176
          29    0.5625   -0.1747    0.0395   -0.0591   -0.0361    0.0206   -0.0334    0.0223
          30    0.2406   -0.0792   -0.0296   -0.0687   -0.0423    0.0201   -0.0151   -0.0318


   Root No.      17        18        19        20        21        22        23        24

                17 A      18 A      19 A      20 A      21 A      22 A      23 A      24 A   

                1452.6    2249.3    2669.5    2678.1    2730.8    2764.7    2781.1    2796.1
  
           1   -0.4570   -0.1056   -0.0016    0.0051   -0.1376    0.0508    0.0335   -0.1535
           2   -0.1818    0.0022   -0.0003    0.0032    0.2225   -0.0762   -0.0155   -0.0630
           3   -0.1214   -0.1560   -0.0024    0.0025    0.0976   -0.0247    0.0061   -0.0987
           4   -0.1295   -0.0019    0.0062   -0.1321    0.0002   -0.0480    0.1172    0.0193
           5   -0.0159   -0.0039    0.1752   -0.1832   -0.0115   -0.0156   -0.0695   -0.0137
           6    0.0020    0.0007   -0.2108   -0.1582   -0.0038    0.0005   -0.0396   -0.0089
           7   -0.0398   -0.0124   -0.0029    0.0011    0.5573   -0.2187   -0.1537    0.5604
           8    0.0536   -0.0042    0.0014   -0.0000   -0.3074    0.1240    0.0905   -0.3489
           9    0.0247   -0.0107    0.0003    0.0001    0.0205   -0.0050   -0.0008   -0.0073
          10    0.1002   -0.0127    0.0000    0.0002   -0.0585    0.0201    0.0040    0.0237
          11   -0.0559   -0.0037   -0.0019   -0.0023   -0.5233    0.1112   -0.0537    0.5737
          12   -0.0279   -0.0116   -0.0009   -0.0021   -0.3811    0.0837   -0.0359    0.4004
          13   -0.1834    0.0112    0.0030   -0.0076    0.0051    0.0277    0.0058    0.0067
          14    0.0364    0.0038    0.0392   -0.1015    0.2823    0.8090    0.2920    0.1176
          15    0.0263   -0.0062    0.0125   -0.0328    0.0934    0.2684    0.0975    0.0386
          16   -0.0865    0.0054   -0.0129    0.0048   -0.0009   -0.0165    0.0317    0.0032
          17   -0.0069    0.0061   -0.3718    0.6519    0.0114   -0.1273    0.5572    0.0889
          18    0.0123    0.0020   -0.1155    0.1177    0.0021   -0.0251    0.1143    0.0187
          19   -0.1358   -0.0025   -0.2928   -0.0270    0.0064    0.0706   -0.1608   -0.0237
          20    0.1028    0.0128   -0.3327   -0.0363    0.0075    0.0949   -0.2217   -0.0325
          21   -0.0051   -0.0129    0.6668   -0.0075   -0.0181   -0.1858    0.4115    0.0600
          22   -0.1652   -0.0024    0.2734    0.4996    0.0208    0.1819   -0.3648   -0.0474
          23    0.1266    0.0017    0.0689    0.0529    0.0019    0.0280   -0.0665   -0.0095
          24    0.1508    0.0070    0.2244    0.4676    0.0196    0.1782   -0.3624   -0.0478
          25    0.7170    0.1421    0.0054   -0.0102   -0.0131   -0.0184    0.0343   -0.0105
          26    0.0939    0.1181   -0.0005    0.0150   -0.0587   -0.2028   -0.0860   -0.0343
          27    0.1082   -0.0839   -0.0180   -0.0003   -0.0191   -0.0689   -0.0337   -0.0198
          28    0.0605   -0.1061   -0.0027    0.0026   -0.0105   -0.0113   -0.0005   -0.0234
          29    0.1017   -0.4179   -0.0051    0.0048    0.0017   -0.0228   -0.0075   -0.0061
          30   -0.1423    0.8580    0.0107   -0.0045    0.0054    0.0068    0.0080   -0.0229


          DESCRIPTION OF VIBRATIONS


 VIBRATION    1    1A       ATOM PAIR        ENERGY CONTRIBUTION    RADIAL
 FREQ.     -2139.88        C  9 --  H 10          -50.4% (-90.4%)    47.4%
 T-DIPOLE    0.7908        C  1 --  H 10          -49.9% (-90.0%)    53.3%
 TRAVEL      0.1276        C  1 --  C  9           -0.9% (-12.1%)     0.1%
 RED. MASS   0.8589        H  5 --  C  9           -0.4% ( -8.1%)     8.7%
 EFF. MASS   1.9368

 VIBRATION    2    2A       ATOM PAIR        ENERGY CONTRIBUTION    RADIAL
 FREQ.       113.61        C  2 --  H  8          +33.2% (456.1%)     0.1%
 T-DIPOLE    0.1064        C  2 --  H  7          +32.4% (450.8%)     0.1%
 TRAVEL      0.3144        C  2 --  H  6          +28.1% (420.2%)     0.0%
 RED. MASS   0.2788        C  9 --  H 10           +3.5% (148.9%)    27.0%
 EFF. MASS   6.0031

 VIBRATION    3    3A       ATOM PAIR        ENERGY CONTRIBUTION    RADIAL
 FREQ.       393.34        C  2 --  C  9          +16.1% (151.2%)     0.0%
 T-DIPOLE    0.2375        C  1 --  C  9          +15.9% (150.1%)     0.0%
 TRAVEL      0.0852        C  1 --  H  4          +11.2% (126.0%)    37.0%
 RED. MASS   1.3236        C  9 --  H 10          +10.8% (123.7%)     0.4%
 EFF. MASS  23.5910

 VIBRATION    4    4A       ATOM PAIR        ENERGY CONTRIBUTION    RADIAL
 FREQ.       480.47        C  1 --  H  3          +22.2% ( 97.3%)     3.0%
 T-DIPOLE    0.3214        C  9 --  H 10          +20.3% ( 93.1%)    10.6%
 TRAVEL      0.1763        C  1 --  H  4          +15.5% ( 81.3%)     0.6%
 RED. MASS   0.4643        C  2 --  C  9           +9.6% ( 64.0%)     0.1%
 EFF. MASS   4.5142

 VIBRATION    5    5A       ATOM PAIR        ENERGY CONTRIBUTION    RADIAL
 FREQ.       857.58        H  5 --  C  9          +48.5% ( 76.3%)     0.5%
 T-DIPOLE    0.7545        C  1 --  H  4          +12.2% ( 38.3%)     0.2%
 TRAVEL      0.2250        C  9 --  H 10          +11.6% ( 37.2%)    12.9%
 RED. MASS   0.3857        C  2 --  H  7          +11.4% ( 37.0%)     3.7%
 EFF. MASS   1.5526

 VIBRATION    6    6A       ATOM PAIR        ENERGY CONTRIBUTION    RADIAL
 FREQ.       928.97        C  1 --  H  3          +26.5% ( 73.5%)    15.7%
 T-DIPOLE    0.2053        C  1 --  H  4          +24.0% ( 69.9%)     5.2%
 TRAVEL      0.1497        C  1 --  H 10          +10.6% ( 46.5%)     8.7%
 RED. MASS   0.3774        C  2 --  H  6           +6.6% ( 36.8%)    76.1%
 EFF. MASS   3.2381

 VIBRATION    7    7A       ATOM PAIR        ENERGY CONTRIBUTION    RADIAL
 FREQ.      1010.15        C  2 --  H  8          +30.0% ( 68.4%)    27.5%
 T-DIPOLE    0.5516        C  2 --  H  6          +17.1% ( 51.6%)     2.0%
 TRAVEL      0.1365        C  2 --  H  7          +14.1% ( 47.0%)     1.3%
 RED. MASS   0.4989        C  1 --  H  3          +10.6% ( 40.6%)     2.5%
 EFF. MASS   3.5833

 VIBRATION    8    8A       ATOM PAIR        ENERGY CONTRIBUTION    RADIAL
 FREQ.      1025.04        C  2 --  H  6          +23.8% ( 65.4%)     4.5%
 T-DIPOLE    0.4680        C  2 --  H  7          +18.1% ( 57.0%)    27.5%
 TRAVEL      0.1228        C  2 --  H  8          +12.7% ( 47.7%)     7.9%
 RED. MASS   0.6380        C  1 --  H  4          +11.5% ( 45.5%)     0.2%
 EFF. MASS   4.3646        C  1 --  H  3          +10.4% ( 43.1%)     2.8%
                           C  2 --  C  9          +10.1% ( 42.6%)    46.4%

 VIBRATION    9    9A       ATOM PAIR        ENERGY CONTRIBUTION    RADIAL
 FREQ.      1062.70        C  1 --  H 10          +28.6% ( 66.9%)     0.0%
 T-DIPOLE    0.7872        C  9 --  H 10          +24.5% ( 61.9%)     0.0%
 TRAVEL      0.1584        C  1 --  H  3          +11.9% ( 43.1%)    16.0%
 RED. MASS   0.3797        C  1 --  H  4           +9.9% ( 39.4%)    12.6%
 EFF. MASS   2.5278

 VIBRATION   10   10A       ATOM PAIR        ENERGY CONTRIBUTION    RADIAL
 FREQ.      1084.77        C  2 --  H  7          +25.7% ( 50.6%)    20.6%
 T-DIPOLE    0.7866        C  2 --  H  8          +18.7% ( 43.1%)     8.9%
 TRAVEL      0.1419        C  2 --  H  6          +12.1% ( 34.8%)     1.0%
 RED. MASS   0.5380        H  5 --  C  9          +12.0% ( 34.6%)     0.0%
 EFF. MASS   3.0862        C  2 --  C  9          +11.3% ( 33.6%)     1.2%
                           C  1 --  H  4          +11.3% ( 33.5%)     0.2%

 VIBRATION   11   11A       ATOM PAIR        ENERGY CONTRIBUTION    RADIAL
 FREQ.      1206.10        C  2 --  C  9          +25.9% ( 78.4%)    66.1%
 T-DIPOLE    0.4978        C  1 --  C  9          +16.3% ( 62.2%)    15.3%
 TRAVEL      0.0792        C  9 --  H 10          +11.6% ( 52.5%)     0.1%
 RED. MASS   2.5041        C  2 --  H  6           +9.4% ( 47.2%)    87.2%
 EFF. MASS   8.9069

 VIBRATION   12   12A       ATOM PAIR        ENERGY CONTRIBUTION    RADIAL
 FREQ.      1283.43        H  5 --  C  9          +49.6% ( 67.8%)     0.5%
 T-DIPOLE    0.3346        C  2 --  H  7          +13.6% ( 35.5%)     0.4%
 TRAVEL      0.1752        C  2 --  H  6          +13.5% ( 35.4%)     0.0%
 RED. MASS   0.3466        C  1 --  C  9           +5.2% ( 21.9%)    80.2%
 EFF. MASS   1.7117

 VIBRATION   13   13A       ATOM PAIR        ENERGY CONTRIBUTION    RADIAL
 FREQ.      1290.09        C  2 --  H  7          +30.8% ( 51.4%)     1.2%
 T-DIPOLE    0.4308        C  2 --  H  8          +28.0% ( 49.0%)     2.3%
 TRAVEL      0.1730        H  5 --  C  9          +24.7% ( 46.0%)     1.0%
 RED. MASS   0.3121        C  2 --  H  6           +4.8% ( 20.4%)    75.9%
 EFF. MASS   1.7461

 VIBRATION   14   14A       ATOM PAIR        ENERGY CONTRIBUTION    RADIAL
 FREQ.      1293.02        C  2 --  H  6          +39.5% ( 54.8%)     0.0%
 T-DIPOLE    0.5213        C  2 --  H  8          +26.2% ( 44.6%)     2.6%
 TRAVEL      0.1884        C  2 --  H  7          +15.6% ( 34.5%)    14.2%
 RED. MASS   0.3072        H  5 --  C  9          +11.3% ( 29.2%)     1.1%
 EFF. MASS   1.4699

 VIBRATION   15   15A       ATOM PAIR        ENERGY CONTRIBUTION    RADIAL
 FREQ.      1369.72        C  1 --  H  3          +41.7% ( 61.0%)     0.6%
 T-DIPOLE    0.4480        C  1 --  H  4          +37.7% ( 58.0%)     1.6%
 TRAVEL      0.1708        H  5 --  C  9           +5.4% ( 21.9%)     0.4%
 RED. MASS   0.4377        C  1 --  H 10           +4.3% ( 19.5%)    46.5%
 EFF. MASS   1.6879

 VIBRATION   16   16A       ATOM PAIR        ENERGY CONTRIBUTION    RADIAL
 FREQ.      1391.68        C  2 --  H  6          +30.4% ( 62.1%)     1.7%
 T-DIPOLE    0.8038        C  2 --  H  8          +24.1% ( 55.3%)     3.0%
 TRAVEL      0.1195        C  2 --  H  7          +22.4% ( 53.4%)     1.7%
 RED. MASS   0.6923        C  2 --  C  9          +12.9% ( 40.5%)    93.5%
 EFF. MASS   3.3950

 VIBRATION   17   17A       ATOM PAIR        ENERGY CONTRIBUTION    RADIAL
 FREQ.      1452.64        C  1 --  C  9          +31.7% ( 89.0%)    95.0%
 T-DIPOLE    0.7331        H  5 --  C  9          +15.7% ( 62.5%)     1.3%
 TRAVEL      0.0680        C  2 --  C  9          +15.2% ( 61.6%)    60.5%
 RED. MASS   4.2350        C  9 --  H 10          +15.2% ( 61.6%)     6.8%
 EFF. MASS  10.0308

 VIBRATION   18   18A       ATOM PAIR        ENERGY CONTRIBUTION    RADIAL
 FREQ.      2249.31        C  9 --  H 10          +49.1% ( 96.4%)    85.6%
 T-DIPOLE    0.7047        C  1 --  H 10          +48.7% ( 96.0%)    82.1%
 TRAVEL      0.1402        C  1 --  C  9           +1.2% ( 15.1%)    99.8%
 RED. MASS   0.8924        C  2 --  C  9           +0.3% (  7.4%)    24.6%
 EFF. MASS   1.5254

 VIBRATION   19   19A       ATOM PAIR        ENERGY CONTRIBUTION    RADIAL
 FREQ.      2669.45        C  2 --  H  7          +67.8% ( 84.8%)    99.7%
 T-DIPOLE    0.6133        C  2 --  H  6          +16.7% ( 42.1%)    86.5%
 TRAVEL      0.1327        C  2 --  H  8          +14.4% ( 39.1%)    84.3%
 RED. MASS   0.5222        C  2 --  C  9           +0.8% (  9.4%)     0.3%
 EFF. MASS   1.4350

 VIBRATION   20   20A       ATOM PAIR        ENERGY CONTRIBUTION    RADIAL
 FREQ.      2678.05        C  2 --  H  8          +50.2% ( 73.1%)    98.2%
 T-DIPOLE    0.4869        C  2 --  H  6          +46.9% ( 70.6%)    97.7%
 TRAVEL      0.1320        H  5 --  C  9           +1.1% ( 11.0%)    99.6%
 RED. MASS   0.4874        C  2 --  C  9           +0.9% (  9.9%)     0.3%
 EFF. MASS   1.4446

 VIBRATION   21   21A       ATOM PAIR        ENERGY CONTRIBUTION    RADIAL
 FREQ.      2730.78        C  1 --  H  4          +45.4% ( 69.7%)    98.4%
 T-DIPOLE    0.5469        C  1 --  H  3          +43.7% ( 68.4%)    98.4%
 TRAVEL      0.1292        H  5 --  C  9           +8.8% ( 30.7%)    99.9%
 RED. MASS   0.4267        C  1 --  C  9           +1.0% ( 10.3%)     1.4%
 EFF. MASS   1.4783

 VIBRATION   22   22A       ATOM PAIR        ENERGY CONTRIBUTION    RADIAL
 FREQ.      2764.71        H  5 --  C  9          +76.2% ( 87.8%)   100.0%
 T-DIPOLE    0.6972        C  1 --  H  3           +6.9% ( 26.4%)    99.0%
 TRAVEL      0.1349        C  2 --  H  8           +6.3% ( 25.2%)    98.5%
 RED. MASS   0.5712        C  2 --  H  7           +4.6% ( 21.5%)    97.0%
 EFF. MASS   1.3409

 VIBRATION   23   23A       ATOM PAIR        ENERGY CONTRIBUTION    RADIAL
 FREQ.      2781.15        C  2 --  H  6          +33.2% ( 55.7%)    96.3%
 T-DIPOLE    0.5081        C  2 --  H  8          +27.1% ( 50.3%)    94.9%
 TRAVEL      0.1434        C  2 --  H  7          +24.4% ( 47.7%)    94.1%
 RED. MASS   0.2553        H  5 --  C  9          +10.9% ( 31.9%)    99.0%
 EFF. MASS   1.1792

 VIBRATION   24   24A       ATOM PAIR        ENERGY CONTRIBUTION    RADIAL
 FREQ.      2796.14        C  1 --  H  4          +50.6% ( 70.0%)    96.4%
 T-DIPOLE    0.6542        C  1 --  H  3          +44.8% ( 65.8%)    95.5%
 TRAVEL      0.1399        H  5 --  C  9           +1.7% ( 12.8%)    99.0%
 RED. MASS   0.4505        C  2 --  H  6           +0.8% (  8.9%)    95.4%
 EFF. MASS   1.2316

           FORCE CONSTANT IN CARTESIAN COORDINATES (Millidynes/A)

    ATOM   CHEMICAL       X               Y               Z
   NUMBER   SYMBOL  FORCE CONSTANT  FORCE CONSTANT  FORCE CONSTANT

      1       C        8.401359        5.821936        1.350030
      2       C        7.374868        6.586224        6.130107
      3       H        3.347659        1.549235        0.455530
      4       H        0.749768        2.945672        1.671562
      5       H        0.906682        3.881335        0.769865
      6       H        0.769496        3.963812        0.718056
      7       H        1.111578        1.250683        3.004744
      8       H        2.518325        0.650316        2.255318
      9       C        9.200360        6.021171        2.367446
     10       H       -1.452016        0.479364        2.090348
 *******************************************************************************
 ** Site#: 29054        For non-commercial use only    Version 18.022W 64BITS **
 *******************************************************************************
 ** Cite this program as: MOPAC2016, Version: 18.022W, James J. P. Stewart,   **
 ** Stewart Computational Chemistry, web: HTTP://OpenMOPAC.net. Days left: 365**
 *******************************************************************************
 **                                                                           **
 **                                MOPAC2016                                  **
 **                                                                           **
 *******************************************************************************

                              PM7 CALCULATION RESULTS


 *******************************************************************************
 *  CALCULATION DONE:                                Mon Jan 22 16:40:08 2018  *
 *  IRC=N      - INTRINSIC REACTION COORDINATE  1 DEFINED
 *  OLDGEO     - PREVIOUS GEOMETRY TO BE USED
 *  RESTART    - CALCULATION RESTARTED
 *  T=         - A TIME OF 172800.0 SECONDS REQUESTED
 *  DUMP=N     - RESTART FILE WRITTEN EVERY  7200.000 SECONDS
 *  CYCLES=    - DO A MAXIMUM OF    60 STEPS
 *  HTML       - WRITE HTML SCRIPT TO GENERATE ANIMATION USING JSMOL
 *             - TO DISPLAY IN PDB FORMAT, ADD "PDBOUT"
 *  X-PRIOR    - GEOMETRY CHANGES TAKE PRIORITY IN DRC
 *******************************************************************************
IRC=1* oldgeo restart html X-PRIORITY=0.05 cycles=60
 Intrinsic Reaction Coordinate for CH3CHCH3 => CH3CH2CH2

   ATOM                 CHEMICAL                   X               Y               Z
  NUMBER                 SYMBOL               (ANGSTROMS)     (ANGSTROMS)     (ANGSTROMS)
 
     1       C(HETATM    1  C1  HET A   1)   -0.01406793  *   0.13795926  *   0.04539762  *
     2       C(HETATM    3  C3  HET A   1)    2.14041476  *   1.51071231  *  -0.03622826  *
     3       H(HETATM    4 1H1  HET A   1)   -0.67764725  *  -0.47713532  *   0.61931707  *
     4       H(HETATM    5 2H1  HET A   1)   -0.51227276  *   0.82184479  *  -0.61196885  *
     5       H(HETATM    7  H2  HET A   1)    1.73314422  *  -0.14956791  *   1.33384721  *
     6       H(HETATM    8 1H3  HET A   1)    1.78291401  *   1.89648586  *  -0.99924602  *
     7       H(HETATM    9 2H3  HET A   1)    2.06540941  *   2.34148874  *   0.68337853  *
     8       H(HETATM   10 3H3  HET A   1)    3.20670021  *   1.27469579  *  -0.14835189  *
     9       C(HETATM    2  C2  HET A   1)    1.35811012  *   0.33595227  *   0.44148899  *
    10       H(HETATM    6 3H1  HET A   1)    1.04145165  *  -0.58037104  *  -0.55333035  *
 

 General Reference for PM7:
 "Optimization of Parameters for Semiempirical Methods VI: More Modifications to the 
 NDDO Approximations and Re-optimization of Parameters", J. J. P. Stewart, J. Mol. Mod., 1:32, 19 (2013)
 http://www.springerlink.com/openurl.asp?genre=article&id=doi:10.1007/s00894-012-1667-x

           Empirical Formula: C3 H7  =    10 atoms



      MOLECULAR POINT GROUP   :   C1  


          UHF CALCULATION, NO. OF ALPHA ELECTRONS =   10
                           NO. OF BETA  ELECTRONS =    9

          MOLECULAR WEIGHT =   43.09


          TIME USED UP TO RESTART =                  0.11

    FOR POINT-GROUP C1   THERE ARE   1 UNIQUE SYMMETRY FUNCTIONS.

           INITIAL VELOCITY IN DRC (Angstroms/Femtosecond)
        -0.01826         0.01599        -0.06424
         0.00180         0.00005        -0.00242
        -0.01490        -0.01313         0.02832
        -0.00808        -0.02247         0.02118
        -0.00327         0.00718        -0.03473
         0.00307        -0.00026        -0.00219
        -0.00458         0.00103         0.00157
        -0.00005         0.00063        -0.00232
        -0.03493        -0.03914         0.04618
         0.64024         0.30234         0.23225

 GEOMETRY PRIORITY, STEP = 0.0500 ANGSTROMS



     POINT   POTENTIAL  +  ENERGY LOST   =   TOTAL      ERROR    REF%   MOVEMENT
       1      47.36246      0.00000         47.36246   0.00000     1   %  0.0000
       7      47.06150      0.28264         47.34414   0.01621     2   %  0.0480
      11      46.31793      1.03777         47.35570   0.02777     3   %  0.0911
      16      44.86372      2.50998         47.37370   0.04577     4   %  0.1452
      21      42.98085      4.40360         47.38446   0.05653     5   %  0.1996
      25      41.00484      6.38888         47.39372   0.06580     6   %  0.2499
      30      38.93675      8.46354         47.40029   0.07236     7   %  0.2996
      34      37.02550     10.37794         47.40345   0.07552     8   %  0.3446
      38      35.08289     12.32272         47.40561   0.07769     9   %  0.3904
      42      32.63976     14.76670         47.40646   0.07853    10   %  0.4495
      46      30.93217     16.47301         47.40518   0.07726    11   %  0.4923
      50      28.75200     18.65051         47.40251   0.07458    12   %  0.5497
      54      26.97077     20.42856         47.39934   0.07141    13   %  0.5995
      58      25.30789     22.08774         47.39564   0.06771    14   %  0.6493
      62      23.76040     23.63103         47.39143   0.06350    15   %  0.6990
      66      22.33213     25.05482         47.38695   0.05902    16   %  0.7488
      70      21.14431     26.23981         47.38412   0.05619    17   %  0.7936
      74      19.83083     27.54788         47.37871   0.05078    18   %  0.8480
      77      18.75112     28.62271         47.37383   0.04591    19   %  0.8974
      81      17.77597     29.59300         47.36897   0.04104    20   %  0.9467
      84      16.90472     30.45946         47.36418   0.03625    21   %  0.9958
      87      16.12815     31.23150         47.35965   0.03172    22   %  1.0446
      91      15.43977     31.91553         47.35530   0.02737    23   %  1.0932
      94      14.83732     32.51396         47.35128   0.02335    24   %  1.1410
      97      14.31469     33.03290         47.34758   0.01966    25   %  1.1878
     100      13.86549     33.47874         47.34423   0.01631    26   %  1.2333
     103      13.48408     33.85714         47.34123   0.01330    27   %  1.2770
     106      13.16112     34.17738         47.33850   0.01057    28   %  1.3190
     108      12.89039     34.44572         47.33611   0.00819    29   %  1.3590
     111      12.66377     34.67021         47.33398   0.00606    30   %  1.3970
     113      12.47457     34.85752         47.33209   0.00417    31   %  1.4332
     116      12.31648     35.01398         47.33046   0.00254    32   %  1.4679
     118      12.18446     35.14453         47.32899   0.00107    33   %  1.5014
     120      12.07323     35.25447         47.32771  -0.00022    34   %  1.5344
     122      11.97831     35.34826         47.32657  -0.00135    35   %  1.5674
     125      11.89485     35.43080         47.32565  -0.00228    36   %  1.6014
     127      11.82227     35.50263         47.32490  -0.00302    37   %  1.6356
     129      11.76951     35.55615         47.32566  -0.00226    38   %  1.6642
     131      11.73265     35.61877         47.35142   0.02349    39   %  1.6893
     133      11.70132     35.75233         47.45365   0.12572    40   %  1.7072
     135      11.69085     35.81810         47.50895   0.18103    41   %  1.7175
     138      11.66205     35.97108         47.63314   0.30521    42   %  1.7346
     140      11.64629     36.07452         47.72081   0.39288    43   %  1.7467
     142      11.63169     36.17910         47.81079   0.48286    44   %  1.7584
     145      11.61794     36.33916         47.95710   0.62917    45   %  1.7772
     147      11.60681     36.44334         48.05015   0.72222    46   %  1.7878
     150      11.58518     36.59705         48.18223   0.85430    47   %  1.8014
     152      11.57555     36.70069         48.27624   0.94831    48   %  1.8113
     155      11.57030     36.85990         48.43021   1.10228    49   %  1.8274
     157      11.56253     36.96480         48.52734   1.19941    50   %  1.8367
     160      11.54323     37.11957         48.66280   1.33487    51   %  1.8487
     163      11.54224     37.28177         48.82402   1.49609    52   %  1.8632
     165      11.53586     37.38528         48.92115   1.59322    53   %  1.8717
     168      11.51800     37.53772         49.05572   1.72780    54   %  1.8828
     171      11.51817     37.69442         49.21259   1.88467    55   %  1.8959
     173      11.51315     37.79787         49.31102   1.98310    56   %  1.9038
     176      11.49738     37.95288         49.45027   2.12234    57   %  1.9142
     179      11.49892     38.11032         49.60925   2.28132    58   %  1.9264
     181      11.49459     38.21380         49.70839   2.38046    59   %  1.9338
     184      11.47953     38.36678         49.84631   2.51838    60   %  1.9437


           INITIAL VELOCITY IN DRC (Angstroms/Femtosecond)
         0.01826        -0.01599         0.06424
        -0.00180        -0.00005         0.00242
         0.01490         0.01313        -0.02832
         0.00808         0.02247        -0.02118
         0.00327        -0.00718         0.03473
        -0.00307         0.00026         0.00219
         0.00458        -0.00103        -0.00157
         0.00005        -0.00063         0.00232
         0.03493         0.03914        -0.04618
        -0.64024        -0.30234        -0.23225

 GEOMETRY PRIORITY, STEP = 0.0500 ANGSTROMS



     POINT   POTENTIAL  +  ENERGY LOST   =   TOTAL      ERROR    REF%   MOVEMENT
       1      47.36246      0.00000         47.36246   0.00000     1   %  0.0000
       7      47.05545      0.28255         47.33799   0.01006     2   %  0.0484
      11      46.07181      1.27481         47.34662   0.01869     3   %  0.1000
      16      44.56857      2.79173         47.36029   0.03236     4   %  0.1500
      21      42.65078      4.72419         47.37497   0.04704     5   %  0.2000
      25      40.45586      6.93102         47.38687   0.05894     6   %  0.2499
      30      38.09542      9.30160         47.39701   0.06908     7   %  0.2999
      34      35.66452     11.74092         47.40545   0.07751     8   %  0.3499
      38      33.22704     14.18283         47.40988   0.08194     9   %  0.3998
      43      30.87423     16.53840         47.41263   0.08470    10   %  0.4489
      47      28.61359     18.80009         47.41368   0.08575    11   %  0.4974
      50      26.27535     21.13895         47.41430   0.08637    12   %  0.5497
      53      24.63509     22.77823         47.41332   0.08539    13   %  0.5881
      57      22.15699     25.25362         47.41061   0.08268    14   %  0.6495
      61      20.28577     27.12188         47.40765   0.07972    15   %  0.6992
      65      18.53816     28.86605         47.40421   0.07628    16   %  0.7490
      69      16.91183     30.48851         47.40034   0.07240    17   %  0.7988
      73      15.41158     31.98488         47.39646   0.06853    18   %  0.8485
      76      14.03052     33.36184         47.39236   0.06443    19   %  0.8982
      80      12.76326     34.62496         47.38822   0.06029    20   %  0.9479
      83      11.60771     35.77641         47.38412   0.05619    21   %  0.9977
      87      10.55686     36.82314         47.37999   0.05206    22   %  1.0475
      90       9.60797     37.76784         47.37581   0.04787    23   %  1.0972
      93       8.75651     38.61524         47.37175   0.04381    24   %  1.1468
      97       7.99296     39.37491         47.36787   0.03994    25   %  1.1967
     100       7.31767     40.04635         47.36403   0.03609    26   %  1.2463
     103       6.72373     40.63657         47.36031   0.03237    27   %  1.2960
     106       6.20744     41.14923         47.35667   0.02874    28   %  1.3456
     109       5.76506     41.58816         47.35323   0.02529    29   %  1.3951
     112       5.39225     41.95742         47.34966   0.02173    30   %  1.4446
     115       5.08576     42.26027         47.34603   0.01810    31   %  1.4940
     118       4.84217     42.50056         47.34273   0.01480    32   %  1.5434
     121       4.65852     42.68078         47.33930   0.01137    33   %  1.5926
     123       4.53252     42.80320         47.33573   0.00780    34   %  1.6414
     126       4.45879     42.87320         47.33199   0.00406    35   %  1.6902
     129       4.43456     42.89383         47.32839   0.00046    36   %  1.7318
     131       4.44758     42.98522         47.43281   0.10487    37   %  1.7348
     134       4.45006     43.11311         47.56318   0.23525    38   %  1.7362
     136       4.45124     43.22923         47.68048   0.35255    39   %  1.7371
     139       4.43288     43.40022         47.83310   0.50517    40   %  1.7387
     142       4.45267     43.58465         48.03731   0.70938    41   %  1.7389
     145       4.43235     43.76209         48.19444   0.86651    42   %  1.7404
     148       4.45347     43.95062         48.40409   1.07616    43   %  1.7402
     151       4.43191     44.13035         48.56226   1.23433    44   %  1.7417
     154       4.45544     44.32619         48.78163   1.45370    45   %  1.7413
     157       4.43162     44.51451         48.94613   1.61820    46   %  1.7428
     160       4.46023     44.72595         49.18618   1.85825    47   %  1.7424
     163       4.43164     44.92194         49.35358   2.02565    48   %  1.7440
     166       4.46415     45.14663         49.61078   2.28285    49   %  1.7437
     169       4.43206     45.35674         49.78879   2.46086    50   %  1.7454
     173       4.43231     45.66254         50.09485   2.76692    51   %  1.7464
     176       4.47495     45.92898         50.40393   3.07600    52   %  1.7462
     179       4.43392     46.16824         50.60216   3.27423    53   %  1.7481
     183       4.43547     46.53190         50.96737   3.63944    54   %  1.7494
     186       4.48529     46.85125         51.33654   4.00861    55   %  1.7495
     189       4.43718     47.12689         51.56407   4.23614    56   %  1.7516
     193       4.44035     47.57377         52.01412   4.68619    57   %  1.7533
     196       4.50502     48.01080         52.51582   5.18789    58   %  1.7539


           POTENTIAL ENERGY HAS STOPPED DROPPING


 **********************
 *                    *
 * JOB ENDED NORMALLY *
 *                    *
 **********************



 TOTAL JOB TIME:             1.19 SECONDS

 == MOPAC DONE ==
