 *******************************************************************************
 ** Site#: 29054        For non-commercial use only    Version 18.021W 64BITS **
 *******************************************************************************
 ** Cite this program as: MOPAC2016, Version: 18.021W, James J. P. Stewart,   **
 ** Stewart Computational Chemistry, web: HTTP://OpenMOPAC.net. Days left: 364**
 *******************************************************************************
 **                                                                           **
 **                                MOPAC2016                                  **
 **                                                                           **
 *******************************************************************************

                              PM7 CALCULATION RESULTS


 *******************************************************************************
 *  CALCULATION DONE:                                Mon Jan 22 14:26:08 2018  *
 *  SYMMETRY   - SYMMETRY CONDITIONS TO BE IMPOSED
 *  T=         - A TIME OF 172800.0 SECONDS REQUESTED
 *  DUMP=N     - RESTART FILE WRITTEN EVERY  7200.000 SECONDS
 *******************************************************************************



                    PARAMETER DEPENDENCE DATA

        REFERENCE ATOM      FUNCTION NO.    DEPENDENT ATOM(S)
            2                  1               3

             DESCRIPTIONS OF THE FUNCTIONS USED
   1      BOND LENGTH    IS SET EQUAL TO THE REFERENCE BOND LENGTH   
 
symmetry
 Transition state for 1-Methyl cyclopenta-2,4-diene <=> 1-Methyl cyclopenta-1,3-diene

  ATOM    CHEMICAL      BOND LENGTH      BOND ANGLE     TWIST ANGLE 
 NUMBER    SYMBOL       (ANGSTROMS)      (DEGREES)       (DEGREES) 
   (I)                     NA:I           NB:NA:I       NC:NB:NA:I       NA    NB    NC 
     1       C          0.00000000       0.0000000       0.0000000        0     0     0
     2       H          1.40000000  *    0.0000000       0.0000000        1     0     0
     3       C          1.40000000      62.7000270  *    0.0000000        2     1     0
     4       C          1.40000000  *  110.0999930  *  -97.5000130  *     3     2     1
     5       H          1.00000000  *  109.4000000  * -120.1999810  *     1     2     3
     6       H          2.20000000  *  119.6999940  * -118.8000330  *     1     2     5
     7       H          2.20000000  *  132.0999910  *   60.4999890  *     4     3     2
     8       H          1.00000000  *  125.0999900  *  179.9000130  *     4     3     7
     9       C          1.54000000  *  110.0999860  * -142.7000300  *     3     2     4
    10       C          1.00000000  *   31.6000100  *  -70.7999960  *     6     1     2
    11       C          1.00000000  *   31.2000030  *    1.1999850  *     7     4     3
    12       H          1.09000000  *  109.4707620  *   52.9333790  *     9     3     2
    13       H          1.09000000  *  109.4714480  * -119.9998620  *     9     3    12
    14       H          1.09000000  *  109.4714480  * -120.0002740  *     9     3    13
 


          CARTESIAN COORDINATES 

    NO.       ATOM           X           Y           Z

     1         C          0.0000      0.0000      0.0000
     2         H          1.4000      0.0000      0.0000
     3         C          0.7579      1.2441      0.0000
     4         C          0.6897      1.7503     -1.3035
     5         H         -0.3322     -0.4745      0.8152
     6         H         -1.0900     -0.9842     -1.6380
     7         H         -0.2555      0.9834     -3.1361
     8         H          1.0983      2.6106     -1.6083
     9         C          1.1538      2.0440      1.2550
    10         C         -0.5183     -0.2230     -1.3319
    11         C         -0.0642      0.8713     -2.1609
    12         H          2.2404      2.0907      1.3282
    13         H          0.7507      1.5532      2.1408
    14         H          0.7507      3.0542      1.1841

 General Reference for PM7:
 "Optimization of Parameters for Semiempirical Methods VI: More Modifications to the 
 NDDO Approximations and Re-optimization of Parameters", J. J. P. Stewart, J. Mol. Mod., 1:32, 19 (2013)
 http://www.springerlink.com/openurl.asp?genre=article&id=doi:10.1007/s00894-012-1667-x

           Empirical Formula: C6 H8  =    14 atoms



      MOLECULAR POINT GROUP   :   C1  


      RHF CALCULATION, NO. OF DOUBLY OCCUPIED LEVELS = 16


          Geometry optimization using EF

          DIAGONAL MATRIX USED AS START HESSIAN

 CYCLE:     1 TIME:   0.016 TIME LEFT:  2.00D  GRAD.:   219.334 HEAT:  74.49247
 CYCLE:     2 TIME:   0.016 TIME LEFT:  2.00D  GRAD.:   213.448 HEAT:  72.13504
 CYCLE:     3 TIME:   0.000 TIME LEFT:  2.00D  GRAD.:    93.094 HEAT:  68.90087
 CYCLE:     4 TIME:   0.000 TIME LEFT:  2.00D  GRAD.:    67.452 HEAT:  66.28589
 CYCLE:     5 TIME:   0.016 TIME LEFT:  2.00D  GRAD.:    35.885 HEAT:  63.95450
 CYCLE:     6 TIME:   0.000 TIME LEFT:  2.00D  GRAD.:    22.592 HEAT:  63.68991
 CYCLE:     7 TIME:   0.000 TIME LEFT:  2.00D  GRAD.:    21.685 HEAT:  63.58202
 CYCLE:     8 TIME:   0.016 TIME LEFT:  2.00D  GRAD.:    28.138 HEAT:  63.56579
 CYCLE:     9 TIME:   0.000 TIME LEFT:  2.00D  GRAD.:    19.783 HEAT:  63.45935
 CYCLE:    10 TIME:   0.000 TIME LEFT:  2.00D  GRAD.:    20.617 HEAT:  63.45827
 CYCLE:    11 TIME:   0.000 TIME LEFT:  2.00D  GRAD.:    10.068 HEAT:  63.37472
 CYCLE:    12 TIME:   0.000 TIME LEFT:  2.00D  GRAD.:     5.126 HEAT:  63.35735
 CYCLE:    13 TIME:   0.000 TIME LEFT:  2.00D  GRAD.:     3.333 HEAT:  63.34261
 CYCLE:    14 TIME:   0.016 TIME LEFT:  2.00D  GRAD.:     2.228 HEAT:  63.33352
 CYCLE:    15 TIME:   0.000 TIME LEFT:  2.00D  GRAD.:     2.267 HEAT:  63.32143
 CYCLE:    16 TIME:   0.000 TIME LEFT:  2.00D  GRAD.:     2.183 HEAT:  63.30463
 CYCLE:    17 TIME:   0.000 TIME LEFT:  2.00D  GRAD.:     2.215 HEAT:  63.29677
 CYCLE:    18 TIME:   0.000 TIME LEFT:  2.00D  GRAD.:     3.370 HEAT:  63.25914
 CYCLE:    19 TIME:   0.016 TIME LEFT:  2.00D  GRAD.:     3.844 HEAT:  63.23157
 CYCLE:    20 TIME:   0.000 TIME LEFT:  2.00D  GRAD.:     1.496 HEAT:  63.20938
 CYCLE:    21 TIME:   0.000 TIME LEFT:  2.00D  GRAD.:     3.112 HEAT:  63.18475
 CYCLE:    22 TIME:   0.000 TIME LEFT:  2.00D  GRAD.:     2.830 HEAT:  63.17324
 CYCLE:    23 TIME:   0.000 TIME LEFT:  2.00D  GRAD.:     1.717 HEAT:  63.17062
 CYCLE:    24 TIME:   0.016 TIME LEFT:  2.00D  GRAD.:     1.185 HEAT:  63.16437
 CYCLE:    25 TIME:   0.000 TIME LEFT:  2.00D  GRAD.:     0.533 HEAT:  63.16058

     GRADIENT =  0.53338  IS LESS THAN CUTOFF =  1.00000



 -------------------------------------------------------------------------------
 symmetry
 Transition state for 1-Methyl cyclopenta-2,4-diene <=> 1-Methyl cyclopenta-1,3-diene



     GEOMETRY OPTIMISED USING EIGENVECTOR FOLLOWING (EF).     
     SCF FIELD WAS ACHIEVED                                   


                              PM7 CALCULATION
                                                       MOPAC2016 (Version: 18.021W)
                                                       Mon Jan 22 14:26:08 2018
                                                       No. of days remaining = 364




          FINAL HEAT OF FORMATION =         63.16057 KCAL/MOL =     264.26384 KJ/MOL


          TOTAL ENERGY            =       -842.47158 EV
          ELECTRONIC ENERGY       =      -3566.04043 EV  POINT GROUP:     C1  
          CORE-CORE REPULSION     =       2723.56885 EV
          COSMO AREA              =        126.85 SQUARE ANGSTROMS
          COSMO VOLUME            =        116.45 CUBIC ANGSTROMS

          GRADIENT NORM           =          0.53338
          IONIZATION POTENTIAL    =          8.781635 EV
          HOMO LUMO ENERGIES (EV) =         -8.782  0.730
          NO. OF FILLED LEVELS    =         16
          MOLECULAR WEIGHT        =         80.1292

          MOLECULAR DIMENSIONS (Angstroms)

            Atom       Atom       Distance
            H    12    H     6     5.50063
            H     7    H     5     4.19793
            H     2    H    14     2.69610


          SCF CALCULATIONS        =         31
 
          WALL-CLOCK TIME         =          0.125 SECONDS
          COMPUTATION TIME        =          0.499 SECONDS




  ATOM    CHEMICAL      BOND LENGTH      BOND ANGLE     TWIST ANGLE 
 NUMBER    SYMBOL       (ANGSTROMS)      (DEGREES)       (DEGREES) 
   (I)                     NA:I           NB:NA:I       NC:NB:NA:I       NA    NB    NC 
     1       C          0.00000000       0.0000000       0.0000000        0     0     0
     2       H          1.43292763  *    0.0000000       0.0000000        1     0     0
     3       C          1.43292763      62.6938782  *    0.0000000        2     1     0
     4       C          1.41653817  *  108.6335550  *  -98.3264449  *     3     2     1
     5       H          1.07007191  *  110.1636860  * -119.9049515  *     1     2     3
     6       H          2.21189773  *  118.4974678  * -118.6866815  *     1     2     5
     7       H          2.20398795  *  132.1916104  *   61.3028641  *     4     3     2
     8       H          1.06893826  *  125.1557691  *  179.5740706  *     4     3     7
     9       C          1.48077329  *  109.9420027  * -141.0025751  *     3     2     4
    10       C          1.06929484  *   31.6183635  *  -70.6220717  *     6     1     2
    11       C          1.07204788  *   31.4296155  *    0.5494660  *     7     4     3
    12       H          1.09961104  *  112.2271377  *   76.1150875  *     9     3     2
    13       H          1.09760209  *  113.0928678  * -122.2643409  *     9     3    12
    14       H          1.10433892  *  110.2133380  * -119.0545300  *     9     3    13

                             CARTESIAN COORDINATES

   1    C        0.000000000     0.000000000     0.000000000
   2    H        1.432927627     0.000000000     0.000000000
   3    C        0.775579963     1.273253954     0.000000000
   4    C        0.740670364     1.764594538    -1.328136335
   5    H       -0.368857335    -0.500800706     0.870744980
   6    H       -1.055340470    -1.013033030    -1.659069667
   7    H       -0.182062402     0.984295450    -3.171302215
   8    H        1.194358892     2.673734302    -1.660191477
   9    C        1.174830829     2.047757975     1.197260118
  10    C       -0.457425218    -0.190904505    -1.327417001
  11    C        0.002863545     0.869751683    -2.121555211
  12    H        2.185299442     2.470681662     1.101170714
  13    H        1.144207596     1.457207974     2.121945606
  14    H        0.488459275     2.899863188     1.346843722


           Empirical Formula: C6 H8  =    14 atoms



      MOLECULAR POINT GROUP   :   C1  


                  EIGENVALUES  
 -31.24082 -26.55304 -24.10465 -22.47997 -18.74252 -18.18528 -16.74215 -15.54173
 -14.39026 -13.52895 -13.21762 -12.78164 -12.59984 -12.22505  -9.60249  -8.78164
   0.72966   1.38816   3.01862   3.74869   4.11289   4.75465   5.11025   5.42418
   5.47296   5.74259   6.03253   6.31038   6.53132   6.64437   6.69439   6.71018


              NET ATOMIC CHARGES AND DIPOLE CONTRIBUTIONS

  ATOM NO.   TYPE          CHARGE      No. of ELECS.   s-Pop       p-Pop       
    1          C          -0.254151        4.2542     1.07789     3.17626
    2          H           0.282560        0.7174     0.71744
    3          C          -0.066037        4.0660     1.05889     3.00715
    4          C          -0.237562        4.2376     1.08091     3.15666
    5          H           0.163357        0.8366     0.83664
    6          H           0.152178        0.8478     0.84782
    7          H           0.147808        0.8522     0.85219
    8          H           0.153154        0.8468     0.84685
    9          C          -0.439539        4.4395     1.04432     3.39522
   10          C          -0.217103        4.2171     1.07909     3.13801
   11          C          -0.160097        4.1601     1.08475     3.07535
   12          H           0.155003        0.8450     0.84500
   13          H           0.149786        0.8502     0.85021
   14          H           0.170644        0.8294     0.82936
 DIPOLE           X         Y         Z       TOTAL
 POINT-CHG.     1.387    -0.413     1.452     2.050
 HYBRID         0.358    -0.177     0.202     0.448
 SUM            1.745    -0.591     1.654     2.476


          ATOMIC ORBITAL ELECTRON POPULATIONS

     Atom    s        px        py        pz   
    1  C   1.07789   0.98224   1.11864   1.07538
    2  H   0.71744
    3  C   1.05889   1.11293   0.89818   0.99604
    4  C   1.08091   1.08868   1.07688   0.99109
    5  H   0.83664
    6  H   0.84782
    7  H   0.85219
    8  H   0.84685
    9  C   1.04432   1.17392   1.14917   1.07213
   10  C   1.07909   1.08177   1.06980   0.98645
   11  C   1.08475   1.01408   0.99535   1.06592
   12  H   0.84500
   13  H   0.85021
   14  H   0.82936
 *******************************************************************************
 ** Site#: 29054        For non-commercial use only    Version 18.021W 64BITS **
 *******************************************************************************
 ** Cite this program as: MOPAC2016, Version: 18.021W, James J. P. Stewart,   **
 ** Stewart Computational Chemistry, web: HTTP://OpenMOPAC.net. Days left: 364**
 *******************************************************************************
 **                                                                           **
 **                                MOPAC2016                                  **
 **                                                                           **
 *******************************************************************************

                              PM7 CALCULATION RESULTS


 *******************************************************************************
 *  CALCULATION DONE:                                Mon Jan 22 14:26:08 2018  *
 *  OPT        - OPTIMIZE COORDINATES OF ALL ATOMS
 *  OLDGEO     - PREVIOUS GEOMETRY TO BE USED
 *  TS         - USE EF ROUTINE FOR TS SEARCH
 *  T=         - A TIME OF 172800.0 SECONDS REQUESTED
 *  DUMP=N     - RESTART FILE WRITTEN EVERY  7200.000 SECONDS
 *******************************************************************************
oldgeo ts opt
 Transition state for 1-Methyl cyclopenta-2,4-diene <=> 1-Methyl cyclopenta-1,3-diene

  ATOM    CHEMICAL      BOND LENGTH      BOND ANGLE     TWIST ANGLE 
 NUMBER    SYMBOL       (ANGSTROMS)      (DEGREES)       (DEGREES) 
   (I)                     NA:I           NB:NA:I       NC:NB:NA:I       NA    NB    NC 
     1       C          0.00000000       0.0000000       0.0000000        0     0     0
     2       H          1.43292763  *    0.0000000       0.0000000        1     0     0
     3       C          1.43292763  *   62.6938782  *    0.0000000        2     1     0
     4       C          1.41653817  *  108.6335550  *  -98.3264449  *     3     2     1
     5       H          1.07007191  *  110.1636860  * -119.9049515  *     1     2     3
     6       H          2.21189773  *  118.4974678  * -118.6866815  *     1     2     5
     7       H          2.20398795  *  132.1916104  *   61.3028641  *     4     3     2
     8       H          1.06893826  *  125.1557691  *  179.5740706  *     4     3     7
     9       C          1.48077329  *  109.9420027  * -141.0025751  *     3     2     4
    10       C          1.06929484  *   31.6183635  *  -70.6220717  *     6     1     2
    11       C          1.07204788  *   31.4296155  *    0.5494660  *     7     4     3
    12       H          1.09961104  *  112.2271377  *   76.1150875  *     9     3     2
    13       H          1.09760209  *  113.0928678  * -122.2643409  *     9     3    12
    14       H          1.10433892  *  110.2133380  * -119.0545300  *     9     3    13
 


          CARTESIAN COORDINATES 

    NO.       ATOM           X           Y           Z

     1         C          0.0000      0.0000      0.0000
     2         H          1.4329      0.0000      0.0000
     3         C          0.7756      1.2733      0.0000
     4         C          0.7407      1.7646     -1.3281
     5         H         -0.3689     -0.5008      0.8707
     6         H         -1.0553     -1.0130     -1.6591
     7         H         -0.1821      0.9843     -3.1713
     8         H          1.1944      2.6737     -1.6602
     9         C          1.1748      2.0478      1.1973
    10         C         -0.4574     -0.1909     -1.3274
    11         C          0.0029      0.8698     -2.1216
    12         H          2.1853      2.4707      1.1012
    13         H          1.1442      1.4572      2.1219
    14         H          0.4885      2.8999      1.3468

 General Reference for PM7:
 "Optimization of Parameters for Semiempirical Methods VI: More Modifications to the 
 NDDO Approximations and Re-optimization of Parameters", J. J. P. Stewart, J. Mol. Mod., 1:32, 19 (2013)
 http://www.springerlink.com/openurl.asp?genre=article&id=doi:10.1007/s00894-012-1667-x

           Empirical Formula: C6 H8  =    14 atoms



      MOLECULAR POINT GROUP   :   C1  


      RHF CALCULATION, NO. OF DOUBLY OCCUPIED LEVELS = 16


          Transition state refinement using EF

          HESSIAN CALCULATED NUMERICALLY

 CYCLE:     1 TIME:   0.078 TIME LEFT:  2.00D  GRAD.:     8.169 HEAT:  63.12147
 CYCLE:     2 TIME:   0.016 TIME LEFT:  2.00D  GRAD.:     0.863 HEAT:  63.18157

     GRADIENT =  0.86257  IS LESS THAN CUTOFF =  1.00000



 -------------------------------------------------------------------------------
 ts opt
 Transition state for 1-Methyl cyclopenta-2,4-diene <=> 1-Methyl cyclopenta-1,3-diene



     GEOMETRY OPTIMISED USING EIGENVECTOR FOLLOWING (TS).     
     SCF FIELD WAS ACHIEVED                                   


                              PM7 CALCULATION
                                                       MOPAC2016 (Version: 18.021W)
                                                       Mon Jan 22 14:26:08 2018
                                                       No. of days remaining = 364




          FINAL HEAT OF FORMATION =         63.18157 KCAL/MOL =     264.35170 KJ/MOL


          TOTAL ENERGY            =       -842.46897 EV
          ELECTRONIC ENERGY       =      -3565.87724 EV  POINT GROUP:     C1  
          CORE-CORE REPULSION     =       2723.40827 EV
          COSMO AREA              =        126.89 SQUARE ANGSTROMS
          COSMO VOLUME            =        116.58 CUBIC ANGSTROMS

          GRADIENT NORM           =          0.86257
          IONIZATION POTENTIAL    =          8.791259 EV
          HOMO LUMO ENERGIES (EV) =         -8.791  0.724
          NO. OF FILLED LEVELS    =         16
          MOLECULAR WEIGHT        =         80.1292

          MOLECULAR DIMENSIONS (Angstroms)

            Atom       Atom       Distance
            H    12    H     6     5.50688
            H     7    H     5     4.20296
            H     2    H    14     2.70091


          SCF CALCULATIONS        =         39
 
          WALL-CLOCK TIME         =          0.219 SECONDS
          COMPUTATION TIME        =          0.874 SECONDS




  ATOM    CHEMICAL      BOND LENGTH      BOND ANGLE     TWIST ANGLE 
 NUMBER    SYMBOL       (ANGSTROMS)      (DEGREES)       (DEGREES) 
   (I)                     NA:I           NB:NA:I       NC:NB:NA:I       NA    NB    NC 
     1       C          0.00000000       0.0000000       0.0000000        0     0     0
     2       H          1.44563405  *    0.0000000       0.0000000        1     0     0
     3       C          1.42179682  *   62.6360106  *    0.0000000        2     1     0
     4       C          1.42076899  *  108.8612074  *  -98.2399553  *     3     2     1
     5       H          1.07001731  *  109.4278374  * -120.2280864  *     1     2     3
     6       H          2.21058316  *  118.8607027  * -118.5419797  *     1     2     5
     7       H          2.20318545  *  132.1316662  *   61.8342322  *     4     3     2
     8       H          1.06910441  *  125.0367224  *  179.8408182  *     4     3     7
     9       C          1.48126010  *  110.1720148  * -141.0829733  *     3     2     4
    10       C          1.06998686  *   31.4409429  *  -70.4544450  *     6     1     2
    11       C          1.07252678  *   31.2703378  *    0.6764165  *     7     4     3
    12       H          1.09962639  *  112.2090777  *   78.0184394  *     9     3     2
    13       H          1.09772553  *  113.1172333  * -122.2229723  *     9     3    12
    14       H          1.10447706  *  110.2358353  * -119.0542410  *     9     3    13

                             CARTESIAN COORDINATES

   1    C        0.000000000     0.000000000     0.000000000
   2    H        1.445634049     0.000000000     0.000000000
   3    C        0.792116946     1.262704075     0.000000000
   4    C        0.752131337     1.759180119    -1.330600321
   5    H       -0.355908473    -0.508020746     0.871883660
   6    H       -1.067008298    -1.003775382    -1.655477629
   7    H       -0.188306538     0.988669446    -3.167966928
   8    H        1.214384595     2.664393866    -1.662103312
   9    C        1.187337918     2.042406764     1.195824234
  10    C       -0.462840572    -0.186233627    -1.321593333
  11    C        0.003691184     0.874187548    -2.118993872
  12    H        2.183107144     2.495786190     1.085965542
  13    H        1.190006672     1.446209143     2.117530595
  14    H        0.478039717     2.872516598     1.362207256


           Empirical Formula: C6 H8  =    14 atoms



      MOLECULAR POINT GROUP   :   C1  


                  EIGENVALUES  
 -31.23299 -26.53788 -24.12257 -22.45957 -18.73898 -18.19805 -16.74402 -15.52978
 -14.38087 -13.51981 -13.22107 -12.77696 -12.58991 -12.21955  -9.59437  -8.79126
   0.72409   1.38894   3.02010   3.75357   4.12246   4.75611   5.10673   5.43473
   5.48428   5.74542   6.02693   6.30587   6.52740   6.65104   6.69008   6.70284


              NET ATOMIC CHARGES AND DIPOLE CONTRIBUTIONS

  ATOM NO.   TYPE          CHARGE      No. of ELECS.   s-Pop       p-Pop       
    1          C          -0.246834        4.2468     1.07938     3.16745
    2          H           0.281636        0.7184     0.71836
    3          C          -0.073990        4.0740     1.05739     3.01660
    4          C          -0.232574        4.2326     1.08144     3.15113
    5          H           0.162301        0.8377     0.83770
    6          H           0.152376        0.8476     0.84762
    7          H           0.147858        0.8521     0.85214
    8          H           0.152915        0.8471     0.84708
    9          C          -0.437682        4.4377     1.04420     3.39349
   10          C          -0.219480        4.2195     1.07905     3.14043
   11          C          -0.160430        4.1604     1.08496     3.07547
   12          H           0.154918        0.8451     0.84508
   13          H           0.149024        0.8510     0.85098
   14          H           0.169962        0.8300     0.83004
 DIPOLE           X         Y         Z       TOTAL
 POINT-CHG.     1.389    -0.419     1.432     2.039
 HYBRID         0.350    -0.194     0.199     0.447
 SUM            1.739    -0.613     1.630     2.462


          ATOMIC ORBITAL ELECTRON POPULATIONS

     Atom    s        px        py        pz   
    1  C   1.07938   0.97579   1.11705   1.07462
    2  H   0.71836
    3  C   1.05739   1.11913   0.90041   0.99706
    4  C   1.08144   1.08469   1.07568   0.99076
    5  H   0.83770
    6  H   0.84762
    7  H   0.85214
    8  H   0.84708
    9  C   1.04420   1.17461   1.14751   1.07136
   10  C   1.07905   1.08257   1.07020   0.98766
   11  C   1.08496   1.01392   0.99563   1.06593
   12  H   0.84508
   13  H   0.85098
   14  H   0.83004
 *******************************************************************************
 ** Site#: 29054        For non-commercial use only    Version 18.021W 64BITS **
 *******************************************************************************
 ** Cite this program as: MOPAC2016, Version: 18.021W, James J. P. Stewart,   **
 ** Stewart Computational Chemistry, web: HTTP://OpenMOPAC.net. Days left: 364**
 *******************************************************************************
 **                                                                           **
 **                                MOPAC2016                                  **
 **                                                                           **
 *******************************************************************************

                              PM7 CALCULATION RESULTS


 *******************************************************************************
 *  CALCULATION DONE:                                Mon Jan 22 14:26:08 2018  *
 *  OLDGEO     - PREVIOUS GEOMETRY TO BE USED
 *  FORCE      - FORCE CALCULATION SPECIFIED
 *  T=         - A TIME OF 172800.0 SECONDS REQUESTED
 *  DUMP=N     - RESTART FILE WRITTEN EVERY  7200.000 SECONDS
 *  ISOTOPE    - FORCE MATRIX WRITTEN TO DISK (CHAN. 9 )
 *******************************************************************************
oldgeo force isotope
 Transition state for 1-Methyl cyclopenta-2,4-diene <=> 1-Methyl cyclopenta-1,3-diene

  ATOM    CHEMICAL      BOND LENGTH      BOND ANGLE     TWIST ANGLE 
 NUMBER    SYMBOL       (ANGSTROMS)      (DEGREES)       (DEGREES) 
   (I)                     NA:I           NB:NA:I       NC:NB:NA:I       NA    NB    NC 
     1       C          0.00000000       0.0000000       0.0000000        0     0     0
     2       H          1.44563405  *    0.0000000       0.0000000        1     0     0
     3       C          1.42179682  *   62.6360106  *    0.0000000        2     1     0
     4       C          1.42076899  *  108.8612074  *  -98.2399553  *     3     2     1
     5       H          1.07001731  *  109.4278374  * -120.2280864  *     1     2     3
     6       H          2.21058316  *  118.8607027  * -118.5419797  *     1     2     5
     7       H          2.20318545  *  132.1316662  *   61.8342322  *     4     3     2
     8       H          1.06910441  *  125.0367224  *  179.8408182  *     4     3     7
     9       C          1.48126010  *  110.1720148  * -141.0829733  *     3     2     4
    10       C          1.06998686  *   31.4409429  *  -70.4544450  *     6     1     2
    11       C          1.07252678  *   31.2703378  *    0.6764165  *     7     4     3
    12       H          1.09962639  *  112.2090777  *   78.0184394  *     9     3     2
    13       H          1.09772553  *  113.1172333  * -122.2229723  *     9     3    12
    14       H          1.10447706  *  110.2358353  * -119.0542410  *     9     3    13
 


          CARTESIAN COORDINATES 

    NO.       ATOM           X           Y           Z

     1         C          0.0000      0.0000      0.0000
     2         H          1.4456      0.0000      0.0000
     3         C          0.7921      1.2627      0.0000
     4         C          0.7521      1.7592     -1.3306
     5         H         -0.3559     -0.5080      0.8719
     6         H         -1.0670     -1.0038     -1.6555
     7         H         -0.1883      0.9887     -3.1680
     8         H          1.2144      2.6644     -1.6621
     9         C          1.1873      2.0424      1.1958
    10         C         -0.4628     -0.1862     -1.3216
    11         C          0.0037      0.8742     -2.1190
    12         H          2.1831      2.4958      1.0860
    13         H          1.1900      1.4462      2.1175
    14         H          0.4780      2.8725      1.3622

 General Reference for PM7:
 "Optimization of Parameters for Semiempirical Methods VI: More Modifications to the 
 NDDO Approximations and Re-optimization of Parameters", J. J. P. Stewart, J. Mol. Mod., 1:32, 19 (2013)
 http://www.springerlink.com/openurl.asp?genre=article&id=doi:10.1007/s00894-012-1667-x

           Empirical Formula: C6 H8  =    14 atoms



      MOLECULAR POINT GROUP   :   C1  


      RHF CALCULATION, NO. OF DOUBLY OCCUPIED LEVELS = 16



          HEAT OF FORMATION =      63.197355 KCALS/MOLE


          CARTESIAN COORDINATE DERIVATIVES

   NUMBER  ATOM         X            Y            Z

     1       C      0.293629    -0.060629     0.168907
     2       H      0.077077    -0.238534     0.121861
     3       C     -0.473428     0.112417    -0.090479
     4       C      0.184654     0.156777     0.298717
     5       H     -0.062698     0.036325    -0.128675
     6       H     -0.053566    -0.285589    -0.097335
     7       H     -0.241640     0.117698    -0.088266
     8       H      0.081939     0.050815    -0.144623
     9       C      0.139408     0.034694    -0.307135
    10       C     -0.022337     0.321125    -0.099944
    11       C      0.076615    -0.319580     0.046965
    12       H      0.083538     0.010979     0.099230
    13       H     -0.007520    -0.016779     0.138637
    14       H     -0.075671     0.080277     0.082138
 


          GRADIENT NORM =   1.09961

          MOLECULAR WEIGHT =   80.13



          ROTATIONAL CONSTANTS IN CM(-1)

          A =    0.26575024   B =    0.11108704   C =    0.08118486



           PRINCIPAL MOMENTS OF INERTIA IN UNITS OF 10**(-40)*GRAM-CM**2

          A =      105.3349   B =      251.9896   C =      344.8029


          ORIENTATION OF MOLECULE IN FORCE CALCULATION

    NO.       ATOM         X         Y         Z

     1          C      -0.4023   -0.9749    0.5491
     2          H       1.0434   -0.9749    0.5491
     3          C       0.3899    0.2878    0.5491
     4          C       0.3499    0.7843   -0.7815
     5          H      -0.7582   -1.4829    1.4210
     6          H      -1.4693   -1.9787   -1.1064
     7          H      -0.5906    0.0138   -2.6189
     8          H       0.8121    1.6895   -1.1130
     9          C       0.7851    1.0675    1.7449
    10          C      -0.8651   -1.1611   -0.7725
    11          C      -0.3986   -0.1007   -1.5699
    12          H       1.7808    1.5209    1.6351
    13          H       0.7877    0.4713    2.6666
    14          H       0.0758    1.8976    1.9113


    FIRST DERIVATIVES WILL BE USED IN THE CALCULATION OF SECOND DERIVATIVES

    FOR POINT-GROUP C1   THERE ARE   1 UNIQUE SYMMETRY FUNCTIONS.

 STEP:   1 TIME =     0.02 SECS, INTEGRAL =      0.02 TIME LEFT: 172799.98
 STEP:   2 TIME =     0.00 SECS, INTEGRAL =      0.02 TIME LEFT: 172799.98
 STEP:   3 TIME =     0.00 SECS, INTEGRAL =      0.02 TIME LEFT: 172799.98
 STEP:   4 TIME =     0.02 SECS, INTEGRAL =      0.03 TIME LEFT: 172799.97
 STEP:   5 TIME =     0.00 SECS, INTEGRAL =      0.03 TIME LEFT: 172799.97
 STEP:   6 TIME =     0.02 SECS, INTEGRAL =      0.05 TIME LEFT: 172799.95
 STEP:   7 TIME =     0.00 SECS, INTEGRAL =      0.05 TIME LEFT: 172799.95
 STEP:   8 TIME =     0.00 SECS, INTEGRAL =      0.05 TIME LEFT: 172799.95
 STEP:   9 TIME =     0.02 SECS, INTEGRAL =      0.06 TIME LEFT: 172799.94
 STEP:  10 TIME =     0.00 SECS, INTEGRAL =      0.06 TIME LEFT: 172799.94
 STEP:  11 TIME =     0.02 SECS, INTEGRAL =      0.08 TIME LEFT: 172799.92
 STEP:  12 TIME =     0.00 SECS, INTEGRAL =      0.08 TIME LEFT: 172799.92
 STEP:  13 TIME =     0.02 SECS, INTEGRAL =      0.09 TIME LEFT: 172799.91
 STEP:  14 TIME =     0.00 SECS, INTEGRAL =      0.09 TIME LEFT: 172799.91
 STEP:  15 TIME =     0.00 SECS, INTEGRAL =      0.09 TIME LEFT: 172799.91
 STEP:  16 TIME =     0.02 SECS, INTEGRAL =      0.11 TIME LEFT: 172799.89
 STEP:  17 TIME =     0.00 SECS, INTEGRAL =      0.11 TIME LEFT: 172799.89
 STEP:  18 TIME =     0.00 SECS, INTEGRAL =      0.11 TIME LEFT: 172799.89
 STEP:  19 TIME =     0.02 SECS, INTEGRAL =      0.12 TIME LEFT: 172799.88
 STEP:  20 TIME =     0.00 SECS, INTEGRAL =      0.12 TIME LEFT: 172799.88
 STEP:  21 TIME =     0.02 SECS, INTEGRAL =      0.14 TIME LEFT: 172799.86
 STEP:  22 TIME =     0.00 SECS, INTEGRAL =      0.14 TIME LEFT: 172799.86
 STEP:  23 TIME =     0.02 SECS, INTEGRAL =      0.16 TIME LEFT: 172799.84
 STEP:  24 TIME =     0.00 SECS, INTEGRAL =      0.16 TIME LEFT: 172799.84
 STEP:  25 TIME =     0.00 SECS, INTEGRAL =      0.16 TIME LEFT: 172799.84
 STEP:  26 TIME =     0.02 SECS, INTEGRAL =      0.17 TIME LEFT: 172799.83
 STEP:  27 TIME =     0.00 SECS, INTEGRAL =      0.17 TIME LEFT: 172799.83
 STEP:  28 TIME =     0.00 SECS, INTEGRAL =      0.17 TIME LEFT: 172799.83
 STEP:  29 TIME =     0.02 SECS, INTEGRAL =      0.19 TIME LEFT: 172799.81
 STEP:  30 TIME =     0.00 SECS, INTEGRAL =      0.19 TIME LEFT: 172799.81
 STEP:  31 TIME =     0.02 SECS, INTEGRAL =      0.20 TIME LEFT: 172799.80
 STEP:  32 TIME =     0.00 SECS, INTEGRAL =      0.20 TIME LEFT: 172799.80
 STEP:  33 TIME =     0.00 SECS, INTEGRAL =      0.20 TIME LEFT: 172799.80
 STEP:  34 TIME =     0.00 SECS, INTEGRAL =      0.20 TIME LEFT: 172799.80
 STEP:  35 TIME =     0.00 SECS, INTEGRAL =      0.20 TIME LEFT: 172799.80
 STEP:  36 TIME =     0.02 SECS, INTEGRAL =      0.22 TIME LEFT: 172799.78
 STEP:  37 TIME =     0.00 SECS, INTEGRAL =      0.22 TIME LEFT: 172799.78
 STEP:  38 TIME =     0.00 SECS, INTEGRAL =      0.22 TIME LEFT: 172799.78
 STEP:  39 TIME =     0.02 SECS, INTEGRAL =      0.23 TIME LEFT: 172799.77
 STEP:  40 TIME =     0.00 SECS, INTEGRAL =      0.23 TIME LEFT: 172799.77
 STEP:  41 TIME =     0.00 SECS, INTEGRAL =      0.23 TIME LEFT: 172799.77
 STEP:  42 TIME =     0.02 SECS, INTEGRAL =      0.25 TIME LEFT: 172799.75

(To convert to Hartree/Bohr^2, multiply by (10^(-21) x N x a0^2)/(4.184 x 627.51) =  0.0642)


           FORCE MATRIX IN MILLIDYNES/ANGSTROM


                  C  1       H  2       C  3       C  4       H  5       H  6
 ------------------------------------------------------------------------------
     C    1  12.970196
     H    2   2.368265   2.779386
     C    3   5.098300   2.405142  14.401397
     C    4   1.964943   1.240559   5.333509  14.917522
     H    5   3.571031   0.291031   0.570714   0.103823   4.406717
     H    6   0.682686   0.024028   0.058467   0.079294   0.016486   4.452499
     H    7   0.080553   0.013031   0.081706   0.674406   0.007478   0.019209
     H    8   0.061623   0.021899   0.673595   3.615902   0.011361   0.006358
     C    9   0.514673   0.410028   4.176393   0.636441   0.015998   0.013484
     C   10   5.664485   1.284645   1.994957   2.209482   0.654645   3.607834
     C   11   2.379943   0.978615   2.362555   6.111117   0.113491   0.670213
     H   12   0.051527   0.012337   0.732520   0.013134   0.001967   0.002302
     H   13   0.018051   0.020491   0.714894   0.044778   0.009032   0.002384
     H   14   0.028083   0.035307   0.741208   0.011876   0.004938   0.002405


                  H  7       H  8       C  9       C 10       C 11       H 12
 ------------------------------------------------------------------------------
     H    7   4.445024
     H    8   0.019758   4.458465
     C    9   0.009467   0.023200  11.772145
     C   10   0.669534   0.080128   0.131955  14.982843
     C   11   3.603670   0.674701   0.123792   5.895245  15.212953
     H   12   0.001744   0.008670   3.397733   0.014998   0.009985   4.206261
     H   13   0.001847   0.001725   3.416689   0.012324   0.011251   0.460995
     H   14   0.001756   0.007660   3.362637   0.017576   0.013490   0.458980


                  H 13       H 14
 ------------------------------
     H   13   4.221149
     H   14   0.458561   4.177243


          HEAT OF FORMATION =      63.197355 KCALS/MOLE

          ZERO POINT ENERGY      69.615 KCAL/MOL

         NOTE: SYSTEM IS NOT A GROUND STATE, THEREFORE ZERO POINT
         ENERGY IS NOT MEANINGFULL. ZERO POINT ENERGY PRINTED
         DOES NOT INCLUDE THE  1 IMAGINARY FREQUENCIES


           NORMAL COORDINATE ANALYSIS (Total motion = 1 Angstrom)


   Root No.       1         2         3         4         5         6         7         8

                 1 A       2 A       3 A       4 A       5 A       6 A       7 A       8 A   

               -1588.2     120.8     259.7     324.7     507.5     573.1     664.3     808.4
  
           1   -0.0715   -0.0126   -0.0443   -0.0095   -0.0320   -0.0214    0.0028   -0.0190
           2    0.0075    0.0067    0.0142   -0.0442    0.0280    0.0165    0.0189    0.0025
           3   -0.0174    0.0023    0.0022   -0.0100    0.0089    0.0189   -0.0506   -0.0569
           4    0.3410   -0.0129   -0.0329   -0.0159   -0.0318   -0.0371   -0.0108   -0.0201
           5    0.5216   -0.0111    0.0318   -0.0449   -0.0227   -0.1021   -0.0219    0.0068
           6   -0.0230    0.0072    0.0209    0.0295    0.0771    0.0193    0.0310   -0.1100
           7    0.0400    0.0020   -0.0480   -0.0087    0.0124    0.0671    0.0649    0.0181
           8   -0.0621   -0.0027    0.0171   -0.0427   -0.0020   -0.0431    0.0085    0.0283
           9    0.0164    0.0005    0.0150    0.0296   -0.0053   -0.0229    0.0330   -0.0221
          10   -0.0110    0.0154   -0.0419    0.0084    0.0261   -0.0339   -0.0316    0.0352
          11   -0.0034   -0.0082    0.0197   -0.0115   -0.0155    0.0336   -0.0422    0.0593
          12   -0.0276   -0.0018    0.0141    0.0423   -0.0117    0.0164    0.0110    0.0150
          13    0.0642   -0.0232   -0.0649   -0.0242   -0.1114   -0.1152   -0.0650    0.0479
          14   -0.0482    0.0155    0.0174   -0.0722    0.0901    0.1168    0.0498    0.0282
          15   -0.0025    0.0030   -0.0050   -0.0325    0.0126    0.0386   -0.0589   -0.0148
          16    0.0079   -0.0175    0.0749    0.0000    0.1705    0.0074   -0.0557    0.0122
          17   -0.0031    0.0130   -0.0499    0.0128   -0.1098    0.0065   -0.0130   -0.1019
          18   -0.0092    0.0014   -0.0361   -0.0545   -0.0382    0.0068   -0.0080   -0.0860
          19   -0.0026    0.0161    0.0785   -0.0072   -0.1643    0.0430   -0.0118    0.0916
          20   -0.0056   -0.0054   -0.0401    0.0718    0.0957   -0.0185    0.0106   -0.0259
          21   -0.0007   -0.0034   -0.0216    0.0191    0.0387    0.0007   -0.0312    0.0857
          22   -0.0039    0.0282   -0.0701    0.0221    0.0794   -0.1579   -0.1023    0.0586
          23    0.0058   -0.0155    0.0392   -0.0056   -0.0495    0.1119   -0.0120    0.0168
          24    0.0084   -0.0037    0.0279    0.0760   -0.0298    0.0561   -0.0142   -0.0619
          25   -0.0054   -0.0023    0.0539    0.0106   -0.0005   -0.0094    0.0298    0.0045
          26    0.0049    0.0002   -0.0065    0.0511   -0.0054   -0.0174    0.0491    0.0090
          27    0.0028   -0.0003   -0.0008   -0.0389    0.0023   -0.0300    0.0734   -0.0073
          28    0.0004   -0.0090    0.0286   -0.0016    0.0555    0.0093   -0.0256   -0.0620
          29   -0.0107    0.0070   -0.0235    0.0013   -0.0355    0.0041   -0.0194   -0.0783
          30    0.0288    0.0007   -0.0174   -0.0229   -0.0129    0.0090   -0.0452   -0.0204
          31    0.0141    0.0087    0.0304   -0.0018   -0.0554    0.0215   -0.0210    0.0094
          32    0.0235   -0.0028   -0.0174    0.0278    0.0320   -0.0029   -0.0300   -0.0146
          33   -0.0008   -0.0018   -0.0105    0.0133    0.0124    0.0062   -0.0340    0.1068
          34   -0.0046   -0.1164    0.0651    0.0031   -0.0024   -0.0269    0.0156    0.0015
          35    0.0022    0.2246   -0.0452    0.0533    0.0010    0.0303    0.0819    0.0226
          36   -0.0013   -0.1127   -0.0711   -0.1128    0.0157    0.0223    0.1182    0.0357
          37   -0.0017    0.2611    0.1011    0.0439   -0.0057   -0.0421    0.0069   -0.0172
          38    0.0074   -0.0582   -0.0165    0.1386   -0.0122    0.0111    0.0586   -0.0193
          39    0.0060   -0.0397   -0.0077    0.0147   -0.0017   -0.0121    0.0772   -0.0247
          40   -0.0040   -0.1602    0.1020    0.0084   -0.0075   -0.0672   -0.0071   -0.0092
          41   -0.0001   -0.1648    0.0204    0.0627   -0.0114   -0.0475    0.0246   -0.0018
          42   -0.0045    0.1525    0.0609   -0.0992    0.0017   -0.1020    0.0323   -0.0033


   Root No.       9        10        11        12        13        14        15        16

                 9 A      10 A      11 A      12 A      13 A      14 A      15 A      16 A   

                 837.5     904.4     954.9     965.5    1007.9    1035.8    1064.7    1081.4
  
           1   -0.0028    0.0215    0.0014    0.0433   -0.0158   -0.0062    0.0084   -0.0181
           2    0.0110   -0.0146    0.0620    0.0199    0.0298   -0.0131    0.0350    0.0013
           3    0.0090   -0.0089   -0.0073   -0.0237    0.0011    0.0012   -0.0207    0.0088
           4   -0.0115    0.0351    0.0140    0.0683   -0.0214   -0.0248   -0.0109   -0.0388
           5   -0.0401    0.0365   -0.0269    0.0443   -0.0224   -0.0236   -0.0028   -0.0848
           6   -0.0771    0.0529   -0.1706    0.0107    0.0261   -0.0031    0.3599   -0.0936
           7    0.0133    0.0018   -0.0084   -0.0137   -0.0019   -0.0051    0.0180    0.0422
           8   -0.0096   -0.0052   -0.0075   -0.0080    0.0021   -0.0049    0.0015   -0.0185
           9    0.0057    0.0000    0.0160    0.0106    0.0021   -0.0047   -0.0015   -0.0080
          10   -0.0227   -0.0402   -0.0144    0.0172    0.0297    0.0125   -0.0175   -0.0094
          11   -0.0027    0.0245   -0.0072   -0.0209   -0.0193    0.0320    0.0120    0.0097
          12    0.0082    0.0087    0.0268    0.0103   -0.0025   -0.0400    0.0106   -0.0026
          13    0.0691   -0.1422    0.1115   -0.0732    0.0895   -0.0104    0.0764    0.0545
          14   -0.0540    0.1336   -0.0014    0.1789   -0.0978   -0.0181   -0.1531   -0.0340
          15   -0.0001    0.0120    0.0026    0.0251   -0.0296   -0.0015   -0.0981    0.0166
          16    0.1967   -0.1528   -0.0636    0.0681   -0.1586    0.0049    0.0209   -0.0183
          17   -0.1154    0.0956    0.0097   -0.0711    0.0885    0.0117   -0.0451    0.0254
          18   -0.0374    0.0400    0.0776    0.0282    0.0689   -0.0277    0.0568   -0.0196
          19    0.1731    0.0877   -0.0823    0.0784    0.2215   -0.0525   -0.0154   -0.0113
          20   -0.1050   -0.0560    0.0969   -0.0169   -0.1308   -0.0839    0.0287   -0.0164
          21   -0.0592   -0.0209    0.0260   -0.0145   -0.0540    0.0009    0.0161   -0.0020
          22    0.1180    0.2302    0.0677   -0.0746   -0.1091   -0.0258    0.0371    0.0278
          23   -0.0848   -0.1377   -0.0492    0.0437    0.0652    0.0287   -0.0351   -0.0219
          24   -0.0204   -0.0577    0.0325    0.0630    0.0373   -0.0939   -0.0410   -0.0386
          25    0.0052   -0.0003   -0.0045   -0.0240   -0.0002    0.0018   -0.0138   -0.0482
          26   -0.0021   -0.0045   -0.0228   -0.0149   -0.0064   -0.0287   -0.0196    0.0258
          27    0.0015   -0.0008   -0.0086   -0.0038   -0.0042    0.0523   -0.0131    0.0163
          28   -0.0141    0.0226    0.0116   -0.0229    0.0417    0.0019   -0.0157    0.0111
          29    0.0238   -0.0161   -0.0145    0.0046   -0.0280    0.0012    0.0048   -0.0030
          30    0.0042   -0.0040   -0.0108    0.0009   -0.0127    0.0058   -0.0008   -0.0015
          31   -0.0205   -0.0107    0.0140   -0.0132   -0.0538    0.0010    0.0090    0.0011
          32    0.0105    0.0095   -0.0161    0.0052    0.0299    0.0009   -0.0131   -0.0001
          33   -0.0119    0.0044   -0.0054    0.0038    0.0138    0.0025    0.0076   -0.0022
          34   -0.0080   -0.0016   -0.0185   -0.0009   -0.0041   -0.0251   -0.0021    0.0245
          35    0.0267   -0.0029    0.0038   -0.0698    0.0020    0.0078   -0.0425   -0.1286
          36    0.0232   -0.0129   -0.0501   -0.1287   -0.0063   -0.1316   -0.0777   -0.1483
          37   -0.0127    0.0062    0.0041    0.0472   -0.0038    0.0801    0.0173    0.0832
          38    0.0219    0.0086    0.0577    0.0264    0.0069    0.2222    0.0045   -0.0347
          39    0.0158    0.0063    0.0377    0.0190    0.0037    0.1857    0.0009   -0.0218
          40   -0.0283    0.0004   -0.0298    0.0458   -0.0100   -0.0154    0.0136    0.1323
          41   -0.0164   -0.0013   -0.0183    0.0338   -0.0088    0.0068    0.0005    0.1129
          42   -0.0429   -0.0119   -0.0837    0.0202   -0.0180   -0.1335   -0.0038    0.1792


   Root No.      17        18        19        20        21        22        23        24

                17 A      18 A      19 A      20 A      21 A      22 A      23 A      24 A   

                1148.4    1168.0    1190.5    1279.8    1283.0    1285.8    1345.3    1390.8
  
           1   -0.0065   -0.0040   -0.0130   -0.0036    0.0025    0.0126   -0.0369    0.0006
           2   -0.0101    0.0019   -0.0267   -0.0036    0.0024    0.0120   -0.0544    0.0021
           3    0.0165   -0.0066    0.0116   -0.0035    0.0022    0.0219   -0.0062   -0.0055
           4   -0.0033   -0.0199   -0.0244   -0.0007    0.0002    0.0118   -0.0427   -0.0035
           5    0.0185   -0.0268   -0.0102   -0.0009    0.0103    0.0229    0.1174   -0.0166
           6    0.0743    0.1003    0.0176    0.0090    0.0011   -0.0232   -0.0378   -0.0002
           7    0.0037   -0.0040   -0.0023   -0.0004   -0.0021    0.0113    0.0561   -0.0004
           8    0.0134   -0.0093   -0.0083   -0.0002    0.0056    0.0182    0.1037   -0.0025
           9   -0.0062   -0.0097   -0.0226    0.0018   -0.0016   -0.0172   -0.0044    0.0087
          10   -0.0104   -0.0006    0.0080    0.0017   -0.0013   -0.0098    0.0030   -0.0036
          11   -0.0195    0.0108    0.0236    0.0002   -0.0027   -0.0082   -0.0230   -0.0013
          12    0.0083   -0.0083   -0.0181    0.0053   -0.0017   -0.0212    0.0499   -0.0090
          13    0.1623    0.1704    0.0320    0.0167   -0.0148   -0.1030   -0.0085    0.0018
          14    0.1114    0.0993    0.0132    0.0118   -0.0163   -0.0926    0.0018    0.0017
          15    0.1529    0.1238    0.0536    0.0139   -0.0156   -0.0865    0.0229   -0.0041
          16   -0.0111   -0.0142   -0.0133    0.0009    0.0004   -0.0036    0.0028    0.0013
          17    0.0619    0.0162   -0.1411   -0.0105    0.0093    0.0557   -0.0345    0.0018
          18   -0.1556   -0.0759    0.2885    0.0291   -0.0239   -0.1586    0.0960   -0.0006
          19    0.1046   -0.0914    0.1302   -0.0175    0.0111    0.0888   -0.0531    0.0074
          20    0.1666   -0.1349    0.2209   -0.0266    0.0178    0.1403   -0.0747    0.0101
          21   -0.0034   -0.0161   -0.0267   -0.0013    0.0013    0.0017   -0.0087    0.0025
          22   -0.0560    0.1096    0.0472   -0.0074    0.0066    0.0652    0.0253   -0.0013
          23   -0.0427    0.0510    0.0379   -0.0027    0.0029    0.0299   -0.0035   -0.0013
          24   -0.1275    0.2545    0.0711   -0.0141    0.0238    0.1856    0.1031   -0.0039
          25   -0.0013    0.0055    0.0048   -0.0109   -0.0294   -0.0024   -0.0177   -0.0188
          26   -0.0107    0.0076    0.0106   -0.0281    0.0124   -0.0103   -0.0369   -0.0325
          27   -0.0001    0.0092    0.0203    0.0159    0.0038    0.0082   -0.0244   -0.0550
          28   -0.0025   -0.0106   -0.0136    0.0011   -0.0005   -0.0067    0.0099    0.0004
          29   -0.0048   -0.0174   -0.0208    0.0026   -0.0009   -0.0141    0.0151   -0.0016
          30   -0.0095   -0.0027   -0.0031   -0.0019    0.0023    0.0149   -0.0082    0.0059
          31    0.0007    0.0001   -0.0006    0.0011   -0.0014   -0.0096   -0.0082    0.0032
          32    0.0038    0.0051    0.0081    0.0024   -0.0027   -0.0170   -0.0060    0.0042
          33   -0.0015   -0.0180   -0.0261   -0.0018    0.0014    0.0032   -0.0130    0.0026
          34   -0.0055    0.0050    0.0041   -0.1354    0.0802   -0.0226   -0.0035   -0.0285
          35   -0.0006    0.0054    0.0057    0.2712   -0.1565    0.0295   -0.0390    0.0826
          36   -0.0222    0.0246    0.0141    0.0082    0.1954   -0.0501   -0.0915    0.2773
          37    0.0071    0.0034    0.0171    0.0396    0.3465   -0.0117    0.0205    0.1015
          38    0.0220    0.0074    0.0246   -0.1464   -0.0613    0.0228    0.0632    0.2449
          39    0.0172    0.0082    0.0241   -0.0784   -0.0434    0.0220    0.0344    0.1334
          40   -0.0042   -0.0014    0.0068    0.2352   -0.0454    0.0291   -0.0142    0.1425
          41   -0.0041   -0.0014    0.0095    0.2228    0.0257    0.0228   -0.0137    0.0544
          42   -0.0264    0.0118    0.0093   -0.1545   -0.2157   -0.0073   -0.0431    0.2204


   Root No.      25        26        27        28        29        30        31        32

                25 A      26 A      27 A      28 A      29 A      30 A      31 A      32 A   

                1451.5    1486.9    1547.4    1570.9    2148.2    2663.5    2676.3    2778.0
  
           1    0.0245   -0.0190   -0.0253   -0.0051   -0.0440    0.0003   -0.0006   -0.0026
           2    0.0145   -0.0054   -0.0098   -0.0179   -0.0136    0.0001   -0.0007   -0.0038
           3    0.1060   -0.0286   -0.0799    0.0055    0.0007   -0.0000    0.0003    0.0073
           4    0.1196    0.0418   -0.0147   -0.0426    0.6940   -0.0041    0.0018   -0.0024
           5    0.1375    0.0491   -0.0280   -0.0158   -0.4462    0.0037   -0.0016    0.0007
           6    0.0194    0.0111    0.0007    0.0024    0.0449    0.0007   -0.0001    0.0008
           7    0.0014   -0.0234   -0.0055    0.0270   -0.0075    0.0023    0.0017   -0.0017
           8   -0.0169   -0.0290   -0.0139    0.0087    0.0485   -0.0022    0.0026   -0.0034
           9   -0.0109   -0.0851    0.0305    0.1447    0.0028   -0.0005   -0.0015   -0.0047
          10    0.0491   -0.0085    0.0648   -0.0053   -0.0025    0.0001   -0.0002    0.0007
          11    0.0596   -0.0174    0.0832    0.0345    0.0016    0.0001   -0.0006    0.0014
          12    0.0546    0.0137    0.0573   -0.1047   -0.0042   -0.0001    0.0006   -0.0001
          13   -0.0494    0.0578    0.0277    0.0477   -0.0113   -0.0005    0.0027    0.0362
          14   -0.0548    0.0502    0.0376    0.0545   -0.0047   -0.0003    0.0035    0.0521
          15    0.0241    0.0177   -0.0217    0.0703    0.0012    0.0009   -0.0067   -0.0900
          16   -0.0347    0.0484    0.0225    0.0068   -0.0041    0.0006   -0.0003    0.0040
          17   -0.0290    0.0483    0.0795    0.0022   -0.0076    0.0008   -0.0003    0.0056
          18   -0.0489    0.0724   -0.1151    0.0336    0.0080    0.0003   -0.0001    0.0023
          19   -0.0525    0.0385    0.0542    0.0460   -0.0001    0.0001   -0.0001    0.0003
          20   -0.0686    0.0303    0.1164    0.0640    0.0001   -0.0000   -0.0000    0.0000
          21   -0.0431    0.0758   -0.0680    0.0227   -0.0028    0.0006   -0.0004    0.0010
          22    0.0075    0.0210    0.0204    0.0470    0.0048   -0.0008    0.0029   -0.0083
          23    0.0312   -0.0153    0.0541    0.0577    0.0077   -0.0009    0.0058   -0.0165
          24   -0.0612    0.0929   -0.0577    0.0679    0.0087    0.0003   -0.0017    0.0056
          25   -0.0037    0.0092    0.0008   -0.0092   -0.0001    0.0406    0.0244   -0.0058
          26   -0.0030    0.0158    0.0021   -0.0151   -0.0007   -0.0257    0.0336   -0.0103
          27   -0.0070    0.0288   -0.0108   -0.0355    0.0003    0.0043   -0.0303   -0.0170
          28   -0.0321    0.0538    0.0317    0.0135   -0.0022   -0.0000    0.0000   -0.0004
          29   -0.0074    0.0988    0.0052    0.0421    0.0011   -0.0000   -0.0000   -0.0008
          30   -0.1006   -0.0383    0.1068   -0.0567   -0.0033   -0.0001    0.0001    0.0005
          31   -0.0411   -0.0325   -0.0749   -0.0258   -0.0003   -0.0000    0.0001    0.0002
          32   -0.0507   -0.0833   -0.0870   -0.0568    0.0003   -0.0001    0.0001    0.0004
          33   -0.0385    0.0779   -0.0815    0.0395   -0.0004   -0.0001    0.0000   -0.0003
          34   -0.0031   -0.0021    0.0021    0.0054    0.0038   -0.2328   -0.3778    0.2499
          35    0.0022    0.0200    0.0031   -0.0193   -0.0038   -0.1316   -0.1646    0.1138
          36    0.0283    0.0377    0.0122   -0.0330   -0.0051    0.0232    0.0175   -0.0279
          37    0.0131    0.0164   -0.0091   -0.0261    0.0026    0.0187    0.0177    0.0008
          38    0.0211    0.0497   -0.0191   -0.0775    0.0043    0.0868   -0.2295   -0.1553
          39    0.0092    0.0367   -0.0190   -0.0500   -0.0018   -0.1606    0.3847    0.2394
          40    0.0214    0.0215   -0.0035   -0.0246   -0.0130   -0.2974    0.0508   -0.1667
          41    0.0064    0.0116   -0.0028   -0.0116    0.0065    0.3737   -0.0297    0.1956
          42    0.0296    0.0319    0.0025   -0.0282   -0.0055    0.0913   -0.0260    0.0390


   Root No.      33        34        35        36

                33 A      34 A      35 A      36 A   

                2781.6    2790.0    2795.3    2804.6
  
           1    0.0114    0.0015   -0.0013    0.0035
           2    0.0174    0.0018   -0.0017    0.0057
           3   -0.0320    0.0002    0.0010   -0.0075
           4    0.0095    0.0005    0.0007    0.0006
           5    0.0028   -0.0007    0.0013    0.0009
           6   -0.0020    0.0002    0.0004   -0.0020
           7    0.0010   -0.0005   -0.0002   -0.0012
           8    0.0015   -0.0011   -0.0009   -0.0016
           9   -0.0028    0.0011    0.0012   -0.0010
          10    0.0030   -0.0058   -0.0127   -0.0106
          11    0.0054   -0.0102   -0.0252   -0.0212
          12   -0.0010    0.0011    0.0094    0.0082
          13   -0.1627   -0.0060    0.0084   -0.0359
          14   -0.2337   -0.0091    0.0120   -0.0521
          15    0.4016    0.0161   -0.0203    0.0893
          16    0.0562   -0.1312    0.2388   -0.1308
          17    0.0751   -0.1773    0.3226   -0.1767
          18    0.0312   -0.0728    0.1317   -0.0724
          19    0.0088    0.0896    0.0144   -0.0363
          20   -0.0057   -0.0532   -0.0085    0.0215
          21    0.0492    0.4892    0.0784   -0.1984
          22   -0.0376    0.0651    0.1680    0.1303
          23   -0.0735    0.1273    0.3287    0.2552
          24    0.0274   -0.0469   -0.1202   -0.0935
          25   -0.0012   -0.0002   -0.0002   -0.0005
          26   -0.0020   -0.0004   -0.0004   -0.0012
          27   -0.0046   -0.0004    0.0001   -0.0015
          28   -0.0039    0.0101   -0.0187    0.0112
          29   -0.0046    0.0145   -0.0248    0.0150
          30   -0.0044    0.0031   -0.0112    0.0060
          31   -0.0011   -0.0069   -0.0031    0.0029
          32   -0.0005    0.0044   -0.0025   -0.0023
          33   -0.0033   -0.0380   -0.0063    0.0172
          34    0.0562    0.0077    0.0043    0.0238
          35    0.0254    0.0037    0.0021    0.0113
          36   -0.0066   -0.0009   -0.0005   -0.0022
          37    0.0003   -0.0000   -0.0001    0.0001
          38   -0.0401   -0.0041    0.0003   -0.0131
          39    0.0630    0.0061   -0.0010    0.0209
          40   -0.0390   -0.0049   -0.0014   -0.0158
          41    0.0457    0.0058    0.0018    0.0190
          42    0.0093    0.0010    0.0003    0.0040


           MASS-WEIGHTED COORDINATE ANALYSIS (NORMAL COORDINATES)


   Root No.       1         2         3         4         5         6         7         8

                 1 A       2 A       3 A       4 A       5 A       6 A       7 A       8 A   

               -1588.2     120.8     259.7     324.7     507.5     573.1     664.3     808.4
  
           1   -0.3294   -0.0895   -0.3210   -0.0690   -0.2164   -0.1464    0.0163   -0.0981
           2    0.0348    0.0477    0.1033   -0.3204    0.1893    0.1133    0.1084    0.0131
           3   -0.0801    0.0160    0.0163   -0.0727    0.0600    0.1292   -0.2899   -0.2936
           4    0.4554   -0.0265   -0.0691   -0.0335   -0.0623   -0.0736   -0.0179   -0.0300
           5    0.6966   -0.0228    0.0668   -0.0944   -0.0444   -0.2026   -0.0364    0.0101
           6   -0.0307    0.0149    0.0438    0.0620    0.1510    0.0383    0.0515   -0.1644
           7    0.1844    0.0140   -0.3482   -0.0629    0.0840    0.4595    0.3719    0.0935
           8   -0.2864   -0.0195    0.1237   -0.3097   -0.0133   -0.2956    0.0490    0.1461
           9    0.0757    0.0036    0.1088    0.2151   -0.0361   -0.1568    0.1894   -0.1140
          10   -0.0505    0.1089   -0.3036    0.0613    0.1764   -0.2321   -0.1811    0.1815
          11   -0.0156   -0.0582    0.1425   -0.0837   -0.1050    0.2305   -0.2421    0.3058
          12   -0.1272   -0.0125    0.1025    0.3069   -0.0788    0.1125    0.0633    0.0771
          13    0.0858   -0.0475   -0.1363   -0.0510   -0.2181   -0.2288   -0.1080    0.0715
          14   -0.0644    0.0317    0.0366   -0.1517    0.1764    0.2319    0.0828    0.0422
          15   -0.0034    0.0062   -0.0105   -0.0684    0.0247    0.0766   -0.0979   -0.0221
          16    0.0105   -0.0359    0.1573    0.0001    0.3339    0.0147   -0.0925    0.0183
          17   -0.0041    0.0267   -0.1048    0.0270   -0.2150    0.0129   -0.0216   -0.1523
          18   -0.0123    0.0029   -0.0758   -0.1146   -0.0748    0.0136   -0.0133   -0.1285
          19   -0.0035    0.0331    0.1649   -0.0152   -0.3218    0.0854   -0.0196    0.1369
          20   -0.0075   -0.0111   -0.0842    0.1510    0.1874   -0.0367    0.0177   -0.0386
          21   -0.0009   -0.0070   -0.0454    0.0402    0.0759    0.0013   -0.0518    0.1281
          22   -0.0052    0.0579   -0.1473    0.0465    0.1556   -0.3134   -0.1700    0.0876
          23    0.0078   -0.0318    0.0824   -0.0118   -0.0970    0.2221   -0.0200    0.0252
          24    0.0112   -0.0076    0.0585    0.1598   -0.0584    0.1113   -0.0235   -0.0925
          25   -0.0247   -0.0164    0.3906    0.0768   -0.0034   -0.0643    0.1711    0.0231
          26    0.0227    0.0017   -0.0470    0.3707   -0.0362   -0.1190    0.2817    0.0464
          27    0.0128   -0.0020   -0.0061   -0.2825    0.0158   -0.2056    0.4206   -0.0378
          28    0.0019   -0.0639    0.2077   -0.0117    0.3754    0.0639   -0.1468   -0.3198
          29   -0.0493    0.0495   -0.1701    0.0094   -0.2403    0.0283   -0.1110   -0.4041
          30    0.1327    0.0049   -0.1261   -0.1664   -0.0875    0.0614   -0.2591   -0.1052
          31    0.0650    0.0616    0.2201   -0.0129   -0.3744    0.1472   -0.1205    0.0483
          32    0.1081   -0.0201   -0.1264    0.2018    0.2161   -0.0198   -0.1719   -0.0751
          33   -0.0036   -0.0127   -0.0759    0.0969    0.0835    0.0423   -0.1948    0.5511
          34   -0.0061   -0.2387    0.1366    0.0066   -0.0047   -0.0535    0.0258    0.0022
          35    0.0029    0.4606   -0.0950    0.1121    0.0020    0.0601    0.1361    0.0338
          36   -0.0017   -0.2311   -0.1494   -0.2371    0.0308    0.0442    0.1964    0.0533
          37   -0.0023    0.5354    0.2124    0.0923   -0.0111   -0.0835    0.0115   -0.0258
          38    0.0099   -0.1193   -0.0346    0.2913   -0.0239    0.0220    0.0973   -0.0288
          39    0.0080   -0.0813   -0.0161    0.0310   -0.0034   -0.0240    0.1282   -0.0369
          40   -0.0053   -0.3285    0.2143    0.0176   -0.0147   -0.1334   -0.0118   -0.0137
          41   -0.0002   -0.3379    0.0429    0.1317   -0.0223   -0.0943    0.0409   -0.0028
          42   -0.0061    0.3126    0.1279   -0.2086    0.0033   -0.2026    0.0537   -0.0050


   Root No.       9        10        11        12        13        14        15        16

                 9 A      10 A      11 A      12 A      13 A      14 A      15 A      16 A   

                 837.5     904.4     954.9     965.5    1007.9    1035.8    1064.7    1081.4
  
           1   -0.0237    0.1607    0.0118    0.3643   -0.1083   -0.0450    0.0598   -0.1364
           2    0.0917   -0.1094    0.5119    0.1669    0.2039   -0.0949    0.2489    0.0097
           3    0.0750   -0.0663   -0.0605   -0.1996    0.0078    0.0084   -0.1476    0.0664
           4   -0.0277    0.0760    0.0336    0.1662   -0.0425   -0.0518   -0.0224   -0.0846
           5   -0.0969    0.0790   -0.0644    0.1080   -0.0445   -0.0495   -0.0058   -0.1851
           6   -0.1866    0.1144   -0.4082    0.0260    0.0518   -0.0065    0.7422   -0.2043
           7    0.1110    0.0134   -0.0691   -0.1154   -0.0132   -0.0369    0.1284    0.3175
           8   -0.0806   -0.0385   -0.0618   -0.0672    0.0143   -0.0356    0.0105   -0.1390
           9    0.0472    0.0001    0.1325    0.0894    0.0144   -0.0343   -0.0106   -0.0605
          10   -0.1897   -0.3003   -0.1188    0.1450    0.2033    0.0901   -0.1244   -0.0706
          11   -0.0228    0.1832   -0.0591   -0.1758   -0.1321    0.2308    0.0854    0.0733
          12    0.0686    0.0648    0.2218    0.0862   -0.0168   -0.2885    0.0754   -0.0194
          13    0.1671   -0.3077    0.2669   -0.1782    0.1776   -0.0217    0.1576    0.1189
          14   -0.1306    0.2890   -0.0035    0.4357   -0.1942   -0.0379   -0.3158   -0.0742
          15   -0.0002    0.0259    0.0062    0.0612   -0.0587   -0.0031   -0.2023    0.0361
          16    0.4761   -0.3306   -0.1523    0.1659   -0.3147    0.0103    0.0431   -0.0400
          17   -0.2792    0.2069    0.0233   -0.1730    0.1757    0.0244   -0.0930    0.0555
          18   -0.0906    0.0865    0.1857    0.0688    0.1367   -0.0579    0.1170   -0.0428
          19    0.4189    0.1898   -0.1970    0.1908    0.4397   -0.1098   -0.0318   -0.0246
          20   -0.2541   -0.1212    0.2319   -0.0411   -0.2597   -0.1754    0.0593   -0.0358
          21   -0.1431   -0.0452    0.0622   -0.0353   -0.1071    0.0019    0.0331   -0.0043
          22    0.2856    0.4980    0.1620   -0.1816   -0.2165   -0.0540    0.0765    0.0607
          23   -0.2053   -0.2979   -0.1179    0.1063    0.1294    0.0599   -0.0724   -0.0479
          24   -0.0493   -0.1248    0.0778    0.1535    0.0741   -0.1964   -0.0846   -0.0842
          25    0.0433   -0.0025   -0.0369   -0.2019   -0.0016    0.0129   -0.0981   -0.3631
          26   -0.0177   -0.0335   -0.1880   -0.1254   -0.0436   -0.2072   -0.1393    0.1946
          27    0.0127   -0.0059   -0.0714   -0.0320   -0.0290    0.3779   -0.0929    0.1226
          28   -0.1180    0.1688    0.0956   -0.1929    0.2858    0.0138   -0.1115    0.0840
          29    0.1988   -0.1203   -0.1200    0.0386   -0.1916    0.0088    0.0341   -0.0228
          30    0.0348   -0.0302   -0.0890    0.0076   -0.0871    0.0421   -0.0054   -0.0116
          31   -0.1709   -0.0795    0.1153   -0.1113   -0.3684    0.0069    0.0641    0.0082
          32    0.0878    0.0707   -0.1331    0.0434    0.2050    0.0063   -0.0933   -0.0007
          33   -0.0995    0.0328   -0.0447    0.0322    0.0945    0.0184    0.0539   -0.0165
          34   -0.0195   -0.0034   -0.0443   -0.0022   -0.0081   -0.0524   -0.0043    0.0535
          35    0.0646   -0.0062    0.0091   -0.1699    0.0040    0.0163   -0.0877   -0.2805
          36    0.0561   -0.0279   -0.1199   -0.3135   -0.0126   -0.2753   -0.1602   -0.3236
          37   -0.0308    0.0134    0.0098    0.1149   -0.0075    0.1675    0.0357    0.1815
          38    0.0530    0.0185    0.1380    0.0642    0.0136    0.4648    0.0092   -0.0757
          39    0.0381    0.0136    0.0902    0.0463    0.0073    0.3884    0.0019   -0.0475
          40   -0.0685    0.0009   -0.0712    0.1115   -0.0199   -0.0322    0.0281    0.2886
          41   -0.0397   -0.0028   -0.0437    0.0822   -0.0174    0.0142    0.0010    0.2464
          42   -0.1037   -0.0258   -0.2003    0.0493   -0.0357   -0.2793   -0.0079    0.3911


   Root No.      17        18        19        20        21        22        23        24

                17 A      18 A      19 A      20 A      21 A      22 A      23 A      24 A   

                1148.4    1168.0    1190.5    1279.8    1283.0    1285.8    1345.3    1390.8
  
           1   -0.0538   -0.0311   -0.0921   -0.0238    0.0171    0.1065   -0.2141    0.0035
           2   -0.0835    0.0145   -0.1886   -0.0239    0.0159    0.1008   -0.3154    0.0129
           3    0.1363   -0.0518    0.0822   -0.0231    0.0151    0.1848   -0.0360   -0.0347
           4   -0.0080   -0.0450   -0.0499   -0.0013    0.0003    0.0288   -0.0718   -0.0063
           5    0.0441   -0.0606   -0.0208   -0.0018    0.0202    0.0559    0.1972   -0.0303
           6    0.1774    0.2269    0.0361    0.0173    0.0021   -0.0566   -0.0635   -0.0003
           7    0.0307   -0.0310   -0.0160   -0.0027   -0.0145    0.0956    0.3253   -0.0026
           8    0.1105   -0.0726   -0.0587   -0.0016    0.0380    0.1534    0.6012   -0.0159
           9   -0.0511   -0.0757   -0.1597    0.0120   -0.0106   -0.1452   -0.0258    0.0546
          10   -0.0853   -0.0046    0.0564    0.0110   -0.0086   -0.0828    0.0174   -0.0224
          11   -0.1604    0.0840    0.1669    0.0016   -0.0182   -0.0692   -0.1333   -0.0085
          12    0.0685   -0.0652   -0.1280    0.0354   -0.0116   -0.1788    0.2893   -0.0567
          13    0.3872    0.3856    0.0654    0.0323   -0.0291   -0.2514   -0.0143    0.0032
          14    0.2659    0.2246    0.0270    0.0228   -0.0320   -0.2261    0.0030    0.0032
          15    0.3650    0.2801    0.1097    0.0269   -0.0305   -0.2112    0.0384   -0.0074
          16   -0.0265   -0.0321   -0.0272    0.0018    0.0007   -0.0088    0.0048    0.0023
          17    0.1478    0.0366   -0.2887   -0.0202    0.0182    0.1361   -0.0580    0.0033
          18   -0.3713   -0.1717    0.5903    0.0563   -0.0469   -0.3873    0.1612   -0.0012
          19    0.2496   -0.2069    0.2665   -0.0339    0.0219    0.2167   -0.0892    0.0135
          20    0.3976   -0.3053    0.4519   -0.0514    0.0348    0.3426   -0.1255    0.0184
          21   -0.0081   -0.0365   -0.0546   -0.0025    0.0026    0.0043   -0.0145    0.0045
          22   -0.1337    0.2481    0.0965   -0.0144    0.0130    0.1593    0.0425   -0.0024
          23   -0.1020    0.1155    0.0775   -0.0053    0.0056    0.0731   -0.0059   -0.0024
          24   -0.3043    0.5759    0.1455   -0.0272    0.0467    0.4530    0.1732   -0.0072
          25   -0.0108    0.0427    0.0339   -0.0730   -0.1994   -0.0204   -0.1024   -0.1182
          26   -0.0885    0.0594    0.0749   -0.1877    0.0838   -0.0864   -0.2140   -0.2043
          27   -0.0005    0.0719    0.1435    0.1058    0.0257    0.0687   -0.1413   -0.3460
          28   -0.0205   -0.0827   -0.0962    0.0077   -0.0035   -0.0565    0.0572    0.0026
          29   -0.0392   -0.1358   -0.1469    0.0171   -0.0059   -0.1188    0.0877   -0.0098
          30   -0.0781   -0.0214   -0.0217   -0.0128    0.0154    0.1257   -0.0474    0.0369
          31    0.0059    0.0009   -0.0045    0.0073   -0.0097   -0.0805   -0.0477    0.0203
          32    0.0309    0.0399    0.0573    0.0162   -0.0182   -0.1434   -0.0345    0.0261
          33   -0.0124   -0.1404   -0.1840   -0.0120    0.0098    0.0272   -0.0754    0.0162
          34   -0.0132    0.0114    0.0085   -0.2617    0.1574   -0.0551   -0.0059   -0.0520
          35   -0.0015    0.0123    0.0116    0.5240   -0.3069    0.0720   -0.0655    0.1505
          36   -0.0531    0.0556    0.0288    0.0159    0.3832   -0.1224   -0.1538    0.5053
          37    0.0168    0.0078    0.0350    0.0766    0.6796   -0.0286    0.0344    0.1849
          38    0.0524    0.0166    0.0503   -0.2829   -0.1201    0.0556    0.1061    0.4463
          39    0.0410    0.0187    0.0494   -0.1515   -0.0852    0.0538    0.0578    0.2431
          40   -0.0101   -0.0033    0.0139    0.4544   -0.0891    0.0711   -0.0238    0.2596
          41   -0.0099   -0.0033    0.0195    0.4305    0.0504    0.0556   -0.0230    0.0991
          42   -0.0630    0.0266    0.0191   -0.2986   -0.4231   -0.0179   -0.0724    0.4015


   Root No.      25        26        27        28        29        30        31        32

                25 A      26 A      27 A      28 A      29 A      30 A      31 A      32 A   

                1451.5    1486.9    1547.4    1570.9    2148.2    2663.5    2676.3    2778.0
  
           1    0.1176   -0.0910   -0.1039   -0.0229   -0.1768    0.0020   -0.0034   -0.0178
           2    0.0695   -0.0257   -0.0402   -0.0799   -0.0547    0.0004   -0.0038   -0.0265
           3    0.5080   -0.1372   -0.3278    0.0246    0.0028   -0.0001    0.0018    0.0507
           4    0.1661    0.0581   -0.0175   -0.0552    0.8078   -0.0067    0.0029   -0.0049
           5    0.1908    0.0681   -0.0333   -0.0205   -0.5194    0.0061   -0.0025    0.0014
           6    0.0269    0.0154    0.0008    0.0032    0.0523    0.0012   -0.0001    0.0017
           7    0.0068   -0.1123   -0.0226    0.1206   -0.0303    0.0131    0.0091   -0.0120
           8   -0.0808   -0.1391   -0.0571    0.0390    0.1947   -0.0127    0.0140   -0.0237
           9   -0.0522   -0.4076    0.1250    0.6468    0.0114   -0.0027   -0.0083   -0.0327
          10    0.2355   -0.0410    0.2658   -0.0235   -0.0102    0.0004   -0.0012    0.0050
          11    0.2856   -0.0834    0.3412    0.1542    0.0065    0.0005   -0.0030    0.0099
          12    0.2616    0.0656    0.2350   -0.4678   -0.0168   -0.0003    0.0032   -0.0005
          13   -0.0686    0.0802    0.0329    0.0617   -0.0131   -0.0009    0.0042    0.0733
          14   -0.0760    0.0696    0.0447    0.0706   -0.0055   -0.0005    0.0055    0.1055
          15    0.0335    0.0245   -0.0258    0.0910    0.0013    0.0015   -0.0105   -0.1822
          16   -0.0481    0.0673    0.0267    0.0089   -0.0048    0.0010   -0.0005    0.0082
          17   -0.0403    0.0671    0.0944    0.0029   -0.0089    0.0013   -0.0005    0.0113
          18   -0.0678    0.1005   -0.1367    0.0435    0.0093    0.0005   -0.0001    0.0046
          19   -0.0728    0.0535    0.0644    0.0596   -0.0002    0.0002   -0.0002    0.0006
          20   -0.0953    0.0421    0.1382    0.0829    0.0001   -0.0001   -0.0000    0.0000
          21   -0.0598    0.1053   -0.0808    0.0293   -0.0033    0.0010   -0.0006    0.0019
          22    0.0105    0.0292    0.0242    0.0608    0.0056   -0.0013    0.0046   -0.0169
          23    0.0433   -0.0212    0.0643    0.0747    0.0089   -0.0015    0.0090   -0.0333
          24   -0.0849    0.1289   -0.0686    0.0879    0.0101    0.0005   -0.0027    0.0113
          25   -0.0179    0.0441    0.0035   -0.0413   -0.0006    0.2306    0.1323   -0.0402
          26   -0.0142    0.0758    0.0086   -0.0676   -0.0029   -0.1458    0.1816   -0.0718
          27   -0.0336    0.1381   -0.0443   -0.1588    0.0012    0.0244   -0.1641   -0.1187
          28   -0.1539    0.2579    0.1301    0.0603   -0.0089   -0.0002    0.0001   -0.0029
          29   -0.0355    0.4734    0.0215    0.1879    0.0046   -0.0002   -0.0002   -0.0054
          30   -0.4821   -0.1833    0.4378   -0.2533   -0.0133   -0.0004    0.0005    0.0032
          31   -0.1969   -0.1557   -0.3072   -0.1155   -0.0013   -0.0002    0.0003    0.0013
          32   -0.2430   -0.3990   -0.3568   -0.2539    0.0014   -0.0004    0.0004    0.0025
          33   -0.1847    0.3731   -0.3342    0.1764   -0.0014   -0.0004    0.0001   -0.0018
          34   -0.0044   -0.0029    0.0025    0.0070    0.0044   -0.3826   -0.5921    0.5056
          35    0.0030    0.0278    0.0037   -0.0250   -0.0044   -0.2162   -0.2580    0.2302
          36    0.0392    0.0523    0.0145   -0.0427   -0.0059    0.0382    0.0274   -0.0565
          37    0.0182    0.0228   -0.0108   -0.0338    0.0031    0.0308    0.0277    0.0015
          38    0.0293    0.0689   -0.0226   -0.1004    0.0050    0.1426   -0.3597   -0.3143
          39    0.0128    0.0510   -0.0225   -0.0647   -0.0021   -0.2640    0.6031    0.4845
          40    0.0297    0.0299   -0.0042   -0.0319   -0.0152   -0.4889    0.0796   -0.3374
          41    0.0089    0.0161   -0.0033   -0.0150    0.0076    0.6143   -0.0465    0.3958
          42    0.0411    0.0443    0.0029   -0.0365   -0.0064    0.1501   -0.0408    0.0790


   Root No.      33        34        35        36

                33 A      34 A      35 A      36 A   

                2781.6    2790.0    2795.3    2804.6
  
           1    0.0722    0.0085   -0.0075    0.0263
           2    0.1105    0.0104   -0.0100    0.0422
           3   -0.2037    0.0012    0.0059   -0.0558
           4    0.0175    0.0008    0.0011    0.0014
           5    0.0051   -0.0012    0.0022    0.0020
           6   -0.0038    0.0004    0.0007   -0.0043
           7    0.0062   -0.0027   -0.0012   -0.0086
           8    0.0093   -0.0065   -0.0051   -0.0118
           9   -0.0179    0.0065    0.0069   -0.0077
          10    0.0188   -0.0336   -0.0732   -0.0788
          11    0.0343   -0.0592   -0.1447   -0.1574
          12   -0.0061    0.0064    0.0539    0.0610
          13   -0.2997   -0.0101    0.0140   -0.0771
          14   -0.4306   -0.0153    0.0200   -0.1119
          15    0.7400    0.0272   -0.0337    0.1918
          16    0.1035   -0.2214    0.3977   -0.2811
          17    0.1384   -0.2993    0.5372   -0.3796
          18    0.0574   -0.1229    0.2194   -0.1556
          19    0.0162    0.1512    0.0240   -0.0781
          20   -0.0104   -0.0899   -0.0142    0.0462
          21    0.0907    0.8258    0.1305   -0.4263
          22   -0.0693    0.1099    0.2799    0.2799
          23   -0.1355    0.2148    0.5475    0.5484
          24    0.0506   -0.0792   -0.2002   -0.2010
          25   -0.0075   -0.0012   -0.0013   -0.0038
          26   -0.0127   -0.0025   -0.0021   -0.0087
          27   -0.0291   -0.0024    0.0005   -0.0108
          28   -0.0246    0.0591   -0.1077    0.0833
          29   -0.0291    0.0845   -0.1425    0.1114
          30   -0.0278    0.0181   -0.0642    0.0442
          31   -0.0072   -0.0403   -0.0180    0.0215
          32   -0.0034    0.0259   -0.0142   -0.0167
          33   -0.0213   -0.2215   -0.0362    0.1275
          34    0.1035    0.0130    0.0071    0.0511
          35    0.0468    0.0062    0.0036    0.0242
          36   -0.0121   -0.0015   -0.0008   -0.0048
          37    0.0006   -0.0001   -0.0002    0.0003
          38   -0.0738   -0.0069    0.0004   -0.0281
          39    0.1161    0.0104   -0.0017    0.0449
          40   -0.0719   -0.0083   -0.0023   -0.0339
          41    0.0843    0.0098    0.0030    0.0408
          42    0.0171    0.0017    0.0004    0.0086


          DESCRIPTION OF VIBRATIONS


 VIBRATION    1    1A       ATOM PAIR        ENERGY CONTRIBUTION    RADIAL
 FREQ.     -1588.20        H  2 --  C  3          -61.4% (-76.8%)    53.3%
 T-DIPOLE    0.4457        C  1 --  H  2          -60.7% (-76.3%)    58.3%
 TRAVEL      0.1306        C  3 --  C  4           -3.1% (-17.4%)    50.0%
 RED. MASS   0.8371        C  1 --  C 10           -3.0% (-16.9%)    54.2%
 EFF. MASS   2.4890

 VIBRATION    2    2A       ATOM PAIR        ENERGY CONTRIBUTION    RADIAL
 FREQ.       120.82        C  9 --  H 12          +32.3% (450.8%)     0.0%
 T-DIPOLE    0.0383        C  9 --  H 14          +31.9% (448.4%)     0.0%
 TRAVEL      0.4304        C  9 --  H 13          +31.4% (445.1%)     0.0%
 RED. MASS   0.3082        C  4 --  C 10           +0.8% ( 69.1%)     0.0%
 EFF. MASS   3.0125

 VIBRATION    3    3A       ATOM PAIR        ENERGY CONTRIBUTION    RADIAL
 FREQ.       259.68        C  3 --  C  9          +16.5% (175.4%)     0.0%
 T-DIPOLE    0.2271        C  9 --  H 14          +10.5% (140.3%)    70.7%
 TRAVEL      0.0867        C  9 --  H 13          +10.2% (138.1%)     0.8%
 RED. MASS   1.0557        C  9 --  H 12           +9.5% (133.3%)    63.5%
 EFF. MASS  34.5170

 VIBRATION    4    4A       ATOM PAIR        ENERGY CONTRIBUTION    RADIAL
 FREQ.       324.66        C  3 --  C  9          +14.4% (194.1%)     0.0%
 T-DIPOLE    0.1308        C  9 --  H 12           +6.8% (133.9%)    41.3%
 TRAVEL      0.0843        C  9 --  H 14           +6.8% (133.9%)    25.8%
 RED. MASS   1.1994        C  9 --  H 13           +6.7% (132.6%)    89.6%
 EFF. MASS  29.2079

 VIBRATION    5    5A       ATOM PAIR        ENERGY CONTRIBUTION    RADIAL
 FREQ.       507.50        C 10 --  C 11          +20.7% ( 87.4%)     0.0%
 T-DIPOLE    0.2087        C  1 --  C 10          +12.9% ( 69.1%)     0.0%
 TRAVEL      0.1110        C  4 --  C 11          +11.8% ( 65.9%)     0.0%
 RED. MASS   1.1375        C  4 --  C 10           +9.5% ( 59.3%)     0.1%
 EFF. MASS  10.7911

 VIBRATION    6    6A       ATOM PAIR        ENERGY CONTRIBUTION    RADIAL
 FREQ.       573.12        C  3 --  C  4          +15.0% ( 78.3%)     0.3%
 T-DIPOLE    0.4508        H  2 --  C  3          +12.6% ( 71.6%)    32.4%
 TRAVEL      0.1179        C  9 --  H 14           +8.8% ( 60.0%)    74.5%
 RED. MASS   1.5543        C  3 --  C  9           +8.4% ( 58.7%)     2.4%
 EFF. MASS   8.4683

 VIBRATION    7    7A       ATOM PAIR        ENERGY CONTRIBUTION    RADIAL
 FREQ.       664.30        C  3 --  C 11           +8.3% ( 88.4%)    71.8%
 T-DIPOLE    0.4280        C  3 --  C  9           +7.7% ( 84.9%)    44.1%
 TRAVEL      0.0837        C  9 --  H 12           +7.5% ( 83.9%)    30.9%
 RED. MASS   1.7835        C  3 --  C  4           +7.3% ( 82.7%)     0.3%
 EFF. MASS  14.4915

 VIBRATION    8    8A       ATOM PAIR        ENERGY CONTRIBUTION    RADIAL
 FREQ.       808.38        C 10 --  C 11          +13.7% (107.4%)     0.0%
 T-DIPOLE    0.3074        C  4 --  C 10          +13.4% (105.9%)    95.3%
 TRAVEL      0.0766        C  1 --  C 11          +12.7% (103.4%)    89.3%
 RED. MASS   2.4340        C  3 --  C 11          +10.2% ( 92.7%)    63.9%
 EFF. MASS  14.2081

 VIBRATION    9    9A       ATOM PAIR        ENERGY CONTRIBUTION    RADIAL
 FREQ.       837.52        H  6 --  C 10          +23.3% ( 65.3%)     0.8%
 T-DIPOLE    0.7935        H  7 --  C 11          +20.6% ( 61.3%)     2.1%
 TRAVEL      0.1747        C  4 --  H  8          +11.1% ( 45.0%)     2.8%
 RED. MASS   0.2781        C  4 --  C 10           +5.5% ( 31.8%)    92.3%
 EFF. MASS   2.6366

 VIBRATION   10   10A       ATOM PAIR        ENERGY CONTRIBUTION    RADIAL
 FREQ.       904.37        C  4 --  H  8          +38.4% ( 69.7%)     0.0%
 T-DIPOLE    0.1159        H  6 --  C 10          +16.2% ( 45.3%)     0.0%
 TRAVEL      0.1707        C  1 --  H  5          +16.1% ( 45.1%)     0.5%
 RED. MASS   0.4293        H  7 --  C 11           +5.5% ( 26.3%)     0.0%
 EFF. MASS   2.5601

 VIBRATION   11   11A       ATOM PAIR        ENERGY CONTRIBUTION    RADIAL
 FREQ.       954.87        C  1 --  H  2          +15.3% ( 67.4%)     0.1%
 T-DIPOLE    0.1959        C  1 --  C  3          +11.3% ( 58.0%)    75.0%
 TRAVEL      0.1046        C  1 --  H  5          +10.4% ( 55.6%)    13.7%
 RED. MASS   1.0101        C  1 --  C 10          +10.1% ( 54.9%)     1.7%
 EFF. MASS   6.4571

[...]
     228      28.57945     38.38123         66.96068   3.77680    48   %  3.3738
     233      28.51953     38.66321         67.18273   3.99886    49   %  3.4199
     237      28.46284     38.94596         67.40880   4.22493    50   %  3.4654
     241      28.40822     39.22899         67.63720   4.45333    51   %  3.5098
     246      28.35422     39.50947         67.86370   4.67982    52   %  3.5534
     250      28.30282     39.79144         68.09426   4.91038    53   %  3.5957
     254      28.25496     40.07520         68.33017   5.14629    54   %  3.6373
     259      28.21258     40.33638         68.54895   5.36508    55   %  3.6749
     263      28.17250     40.59602         68.76852   5.58465    56   %  3.7116
     268      28.12925     40.92104         69.05030   5.86642    57   %  3.7579
     272      28.09329     41.17714         69.27043   6.08655    58   %  3.7928
     277      28.04637     41.49893         69.54530   6.36143    59   %  3.8344
     281      28.01274     41.78601         69.79875   6.61488    60   %  3.8721
     285      27.98356     42.00934         69.99290   6.80902    61   %  3.8993
     290      27.95105     42.33175         70.28280   7.09892    62   %  3.9404
     294      27.92348     42.59057         70.51405   7.33018    63   %  3.9713
     299      27.88491     42.94433         70.82924   7.64537    64   %  4.0120
     304      27.85731     43.23609         71.09340   7.90953    65   %  4.0453
     308      27.82708     43.52659         71.35366   8.16979    66   %  4.0767
     313      27.80186     43.81873         71.62059   8.43672    67   %  4.1085
     317      27.78008     44.10990         71.88998   8.70610    68   %  4.1404
     322      27.75413     44.40428         72.15841   8.97454    69   %  4.1700
     326      27.72964     44.69952         72.42915   9.24528    70   %  4.1993
     331      27.71195     44.99141         72.70336   9.51949    71   %  4.2293
     336      27.69010     45.28529         72.97540   9.79152    72   %  4.2573
     340      27.66918     45.58170         73.25088  10.06701    73   %  4.2844
     345      27.65341     45.87662         73.53003  10.34616    74   %  4.3125
     350      27.63421     46.17330         73.80751  10.62364    75   %  4.3384
     355      27.61574     46.46811         74.08385  10.89998    76   %  4.3633
     359      27.60135     46.72241         74.32375  11.13988    77   %  4.3848
     364      27.59142     47.04206         74.63348  11.44961    78   %  4.4127
     369      27.56888     47.35780         74.92667  11.74280    79   %  4.4368
     373      27.55670     47.61565         75.17235  11.98848    80   %  4.4570
     378      27.55138     47.93666         75.48804  12.30417    81   %  4.4833
     383      27.52913     48.25012         75.77925  12.59538    82   %  4.5055
     388      27.52567     48.57198         76.09765  12.91378    83   %  4.5306
     393      27.50450     48.88969         76.39419  13.21031    84   %  4.5515
     397      27.49512     49.14327         76.63839  13.45452    85   %  4.5692
     402      27.49402     49.46265         76.95667  13.77280    86   %  4.5925
     407      27.47377     49.78333         77.25710  14.07323    87   %  4.6119
     412      27.47299     50.10044         77.57343  14.38956    88   %  4.6339
     417      27.45526     50.41705         77.87230  14.68843    89   %  4.6522
     422      27.45470     50.73545         78.19015  15.00628    90   %  4.6730
     427      27.43826     51.04789         78.48615  15.30228    91   %  4.6903
     431      27.43177     51.30415         78.73592  15.55204    92   %  4.7050
     436      27.42345     51.67558         79.09903  15.91516    93   %  4.7259
     441      27.41715     51.93767         79.35483  16.17096    94   %  4.7402
     446      27.41901     52.25801         79.67702  16.49315    95   %  4.7587
     451      27.40316     52.57439         79.97755  16.79368    96   %  4.7737
     456      27.40762     52.89317         80.30079  17.11691    97   %  4.7915
     461      27.39094     53.21230         80.60324  17.41936    98   %  4.8057
     466      27.39689     53.53568         80.93257  17.74870    99   %  4.8227
     471      27.37963     53.85692         81.23655  18.05268   100   %  4.8361
     476      27.38838     54.18554         81.57392  18.39004   101   %  4.8525
     481      27.36916     54.51112         81.88028  18.69640   102   %  4.8652
     486      27.38289     54.84858         82.23148  19.04760   103   %  4.8814
     491      27.35971     55.17848         82.53820  19.35433   104   %  4.8934
     496      27.37378     55.51276         82.88654  19.70267   105   %  4.9088
     501      27.35193     55.83985         83.19178  20.00791   106   %  4.9200
     506      27.36590     56.17495         83.54084  20.35697   107   %  4.9346
     511      27.34457     56.50437         83.84894  20.66507   108   %  4.9452
     516      27.36101     56.84481         84.20583  21.02196   109   %  4.9593
     521      27.33771     57.17763         84.51534  21.33146   110   %  4.9693
     526      27.35620     57.52368         84.87988  21.69601   111   %  4.9830
     531      27.33161     57.86238         85.19399  22.01012   112   %  4.9926
     536      27.35111     58.20754         85.55865  22.37478   113   %  5.0056
     541      27.32626     58.54277         85.86904  22.68516   114   %  5.0146
     546      27.34833     58.89737         86.24569  23.06182   115   %  5.0272
     551      27.32135     59.24305         86.56440  23.38053   116   %  5.0357
     556      27.34734     59.61483         86.96218  23.77830   117   %  5.0481
     561      27.31699     59.97527         87.29226  24.10839   118   %  5.0562
     566      27.34508     60.34790         87.69298  24.50911   119   %  5.0682
     571      27.31326     60.71568         88.02894  24.84507   120   %  5.0759
     576      27.34552     61.11744         88.46296  25.27908   121   %  5.0878
     581      27.30992     61.49333         88.80325  25.61938   122   %  5.0951
     586      27.34341     61.89430         89.23771  26.05384   123   %  5.1065
     591      27.30708     62.28433         89.59141  26.40754   124   %  5.1134
     596      27.34341     62.70626         90.04967  26.86580   125   %  5.1245
     601      27.30499     63.11285         90.41784  27.23396   126   %  5.1312
     606      27.34403     63.56573         90.90976  27.72589   127   %  5.1421
     611      27.30250     63.97816         91.28066  28.09679   128   %  5.1484
     616      27.34551     64.44644         91.79195  28.60808   129   %  5.1590
     621      27.30170     64.88630         92.18799  29.00412   130   %  5.1650
     626      27.34745     65.38555         92.73300  29.54913   131   %  5.1755
     631      27.30064     65.84511         93.14575  29.96188   132   %  5.1812
     637      27.30127     66.46408         93.76534  30.58147   133   %  5.1908
     642      27.35779     67.06141         94.41920  31.23533   134   %  5.2012
     647      27.30382     67.62182         94.92564  31.74176   135   %  5.2069
     652      27.37240     68.35797         95.73037  32.54650   136   %  5.2179
     657      27.30592     68.99965         96.30557  33.12170   137   %  5.2235
     662      27.38084     69.79758         97.17843  33.99455   138   %  5.2342
     667      27.31641     70.59068         97.90709  34.72322   139   %  5.2400


           POTENTIAL ENERGY HAS STOPPED DROPPING

           INITIAL VELOCITY IN DRC (Angstroms/Femtosecond)
         0.07146        -0.00755         0.01737
        -0.34098        -0.52164         0.02298
        -0.04000         0.06212        -0.01643
         0.01095         0.00339         0.02758
        -0.06424         0.04823         0.00254
        -0.00787         0.00308         0.00925
         0.00260         0.00562         0.00066
         0.00389        -0.00583        -0.00841
         0.00536        -0.00492        -0.00277
        -0.00041         0.01069        -0.02879
        -0.01410        -0.02345         0.00079
         0.00459        -0.00219         0.00126
         0.00171        -0.00742        -0.00600
         0.00397         0.00015         0.00454

 GEOMETRY PRIORITY, STEP = 0.1000 ANGSTROMS



     POINT   POTENTIAL  +  ENERGY LOST   =   TOTAL      ERROR    REF%   MOVEMENT
       1      63.19736      0.00000         63.19736   0.00000     1   %  0.0000
       6      63.18557      0.52183         63.70740   0.51853     2   %  0.0326
      13      62.59867      1.15936         63.75803   0.56916     3   %  0.1058
      21      60.87018      2.86714         63.73731   0.54844     4   %  0.2027
      28      58.19591      5.52368         63.71959   0.53072     5   %  0.3022
      36      54.93300      8.77704         63.71004   0.52117     6   %  0.4016
      44      51.37192     12.32955         63.70146   0.51259     7   %  0.5009
      51      47.74091     15.95245         63.69336   0.50449     8   %  0.6004
      58      44.21319     19.47139         63.68457   0.49570     9   %  0.6998
      65      40.90962     22.76633         63.67595   0.48707    10   %  0.7992
      72      37.89768     25.76936         63.66703   0.47816    11   %  0.8984
      79      35.21309     28.44484         63.65794   0.46907    12   %  0.9975
      86      32.86533     30.78361         63.64895   0.46007    13   %  1.0964
      92      30.84969     32.79030         63.63999   0.45112    14   %  1.1950
      99      29.15076     34.48077         63.63153   0.44266    15   %  1.2930
     105      27.74228     35.88133         63.62361   0.43474    16   %  1.3903
     111      26.59821     37.01826         63.61647   0.42760    17   %  1.4866
     117      25.68818     37.92181         63.60999   0.42112    18   %  1.5813
     123      24.98313     38.62110         63.60423   0.41536    19   %  1.6735
     129      24.44854     39.15108         63.59962   0.41075    20   %  1.7624
     135      24.04877     39.54711         63.59588   0.40701    21   %  1.8465
     140      23.75054     39.84259         63.59313   0.40425    22   %  1.9228
     145      23.51692     40.07436         63.59128   0.40241    23   %  1.9905
     150      23.32060     40.26924         63.58985   0.40097    24   %  2.0521
     155      23.14845     40.44010         63.58856   0.39969    25   %  2.1138
     159      23.02730     40.56089         63.58819   0.39931    26   %  2.1649
     163      22.90764     40.78394         63.69157   0.50270    27   %  2.2262
     168      22.83517     41.02830         63.86347   0.67459    28   %  2.2652
     172      22.76802     41.28760         64.05562   0.86675    29   %  2.3031
     177      22.70518     41.56132         64.26650   1.07763    30   %  2.3425
     181      22.64736     41.84668         64.49404   1.30517    31   %  2.3820
     186      22.59407     42.13849         64.73256   1.54368    32   %  2.4169
     191      22.54595     42.43402         64.97997   1.79110    33   %  2.4553
     196      22.50157     42.73255         65.23411   2.04524    34   %  2.4877
     201      22.46071     43.03172         65.49242   2.30355    35   %  2.5230
     206      22.42355     43.33095         65.75450   2.56563    36   %  2.5536
     211      22.38954     43.63019         66.01973   2.83086    37   %  2.5855
     216      22.35803     43.93159         66.28962   3.10074    38   %  2.6149
     221      22.33113     44.22114         66.55227   3.36340    39   %  2.6409
     226      22.30152     44.53505         66.83656   3.64769    40   %  2.6723
     231      22.27842     44.83851         67.11693   3.92806    41   %  2.6971
     235      22.25394     45.14475         67.39869   4.20982    42   %  2.7264
     240      22.23426     45.44822         67.68248   4.49360    43   %  2.7482
     245      22.21282     45.75665         67.96946   4.78059    44   %  2.7764
     250      22.19719     46.00417         68.20136   5.01249    45   %  2.7956
     255      22.18390     46.31452         68.49842   5.30955    46   %  2.8157
     261      22.16394     46.68220         68.84614   5.65727    47   %  2.8428
     266      22.14702     46.99208         69.13910   5.95023    48   %  2.8675
     271      22.13509     47.30407         69.43916   6.25029    49   %  2.8872
     276      22.12176     47.61831         69.74007   6.55120    50   %  2.9085
     281      22.10989     47.93364         70.04352   6.85465    51   %  2.9288
     286      22.09983     48.24930         70.34914   7.16026    52   %  2.9469
     291      22.08896     48.56435         70.65331   7.46444    53   %  2.9680
     296      22.08077     48.88122         70.96198   7.77311    54   %  2.9833
     302      22.07108     49.20034         71.27143   8.08255    55   %  3.0035
     307      22.06356     49.51839         71.58196   8.39308    56   %  3.0195
     312      22.05673     49.83810         71.89483   8.70596    57   %  3.0351
     317      22.04804     50.15854         72.20657   9.01770    58   %  3.0532
     323      22.04377     50.48051         72.52428   9.33541    59   %  3.0662
     328      22.03744     50.80291         72.84035   9.65148    60   %  3.0818
     333      22.03089     51.12693         73.15781   9.96894    61   %  3.0976
     338      22.02773     51.45191         73.47964  10.29077    62   %  3.1089
     344      22.02222     51.77801         73.80023  10.61136    63   %  3.1236
     349      22.01679     52.10488         74.12167  10.93279    64   %  3.1374
     354      22.01440     52.43077         74.44517  11.25630    65   %  3.1476
     360      22.01035     52.75767         74.76802  11.57915    66   %  3.1606
     365      22.00522     53.08575         75.09098  11.90210    67   %  3.1734
     371      22.00470     53.41459         75.41929  12.23042    68   %  3.1828
     376      22.00205     53.74321         75.74525  12.55638    69   %  3.1935
     381      21.99622     54.07384         76.07006  12.88119    70   %  3.2058
     387      21.99555     54.40492         76.40047  13.21160    71   %  3.2147
     392      21.99444     54.73457         76.72901  13.54014    72   %  3.2230
     398      21.99078     55.06610         77.05687  13.86800    73   %  3.2335
     403      21.98850     55.39747         77.38597  14.19710    74   %  3.2430
     409      21.98807     55.72844         77.71651  14.52763    75   %  3.2499
     414      21.98654     56.06239         78.04894  14.86006    76   %  3.2582
     419      21.98361     56.39641         78.38003  15.19115    77   %  3.2678
     425      21.98270     56.72816         78.71086  15.52199    78   %  3.2746
     430      21.98211     57.05985         79.04196  15.85309    79   %  3.2804
     436      21.98015     57.39169         79.37184  16.18297    80   %  3.2885
     441      21.97888     57.72401         79.70289  16.51402    81   %  3.2965
     447      21.97819     58.05564         80.03383  16.84495    82   %  3.3020
     452      21.97627     58.38881         80.36508  17.17621    83   %  3.3072
     458      21.97632     58.72192         80.69824  17.50936    84   %  3.3144
     463      21.97560     59.05461         81.03021  17.84134    85   %  3.3211
     469      21.97459     59.38792         81.36252  18.17364    86   %  3.3254
     474      21.97361     59.72399         81.69759  18.50872    87   %  3.3301
     480      21.97300     60.05758         82.03059  18.84171    88   %  3.3367
     485      21.97246     60.39249         82.36494  19.17607    89   %  3.3420
     491      21.97189     60.72844         82.70033  19.51146    90   %  3.3452
     496      21.97116     61.06183         83.03299  19.84412    91   %  3.3499
     502      21.97080     61.39618         83.36698  20.17811    92   %  3.3558
     507      21.97026     61.72987         83.70013  20.51125    93   %  3.3602
     513      21.96987     62.06356         84.03344  20.84456    94   %  3.3629
     518      21.96996     62.39766         84.36762  21.17875    95   %  3.3668
     524      21.96933     62.73317         84.70250  21.51363    96   %  3.3722
     529      21.96848     63.06783         85.03631  21.84744    97   %  3.3760
     535      21.96856     63.40166         85.37023  22.18135    98   %  3.3782
     540      21.96943     63.73775         85.70717  22.51830    99   %  3.3814
     546      21.96680     64.07399         86.04079  22.85192   100   %  3.3860
     551      21.97030     64.37122         86.34151  23.15264   101   %  3.3874
     557      21.96804     64.75021         86.71825  23.52938   102   %  3.3917
     562      21.96944     65.08702         87.05646  23.86758   103   %  3.3942
     568      21.96350     65.40909         87.37259  24.18372   104   %  3.3989
     573      21.97143     65.71998         87.69141  24.50254   105   %  3.3994
     579      21.97209     66.09129         88.06338  24.87451   106   %  3.4024
     584      21.96182     66.40151         88.36332  25.17445   107   %  3.4070
     590      21.96088     66.78084         88.74172  25.55285   108   %  3.4097
     595      21.97280     67.09541         89.06821  25.87934   109   %  3.4101
     601      21.97279     67.47606         89.44884  26.25997   110   %  3.4128
     606      21.95965     67.78885         89.74850  26.55963   111   %  3.4169
     612      21.95906     68.17346         90.13252  26.94364   112   %  3.4195
     618      21.95864     68.56156         90.52020  27.33133   113   %  3.4220
     623      21.97665     68.88902         90.86567  27.67680   114   %  3.4221
     629      21.97684     69.28252         91.25937  28.07049   115   %  3.4245
     634      21.95767     69.60910         91.56677  28.37789   116   %  3.4283
     640      21.95733     70.00649         91.96382  28.77495   117   %  3.4306
     645      21.97927     70.34705         92.32632  29.13744   118   %  3.4306
     651      21.98079     70.75631         92.73710  29.54823   119   %  3.4328
     657      21.98348     71.17610         93.15958  29.97071   120   %  3.4350
     662      21.95641     71.52201         93.47842  30.28954   121   %  3.4386
     668      21.95621     71.94303         93.89924  30.71037   122   %  3.4407
     673      21.98464     72.31185         94.29649  31.10762   123   %  3.4406
     679      21.98506     72.74737         94.73244  31.54356   124   %  3.4427
     684      21.95589     73.11196         95.06785  31.87897   125   %  3.4461
     690      21.95568     73.55643         95.51212  32.32325   126   %  3.4481
     696      21.95549     73.99988         95.95537  32.76650   127   %  3.4501
     701      21.98699     74.38198         96.36897  33.18010   128   %  3.4499
     707      21.98805     74.83983         96.82788  33.63901   129   %  3.4518
     712      21.95514     75.20756         97.16270  33.97383   130   %  3.4552
     718      21.95499     75.66045         97.61543  34.42656   131   %  3.4570
     724      21.95538     76.12817         98.08355  34.89467   132   %  3.4587
     729      21.99338     76.55130         98.54468  35.35580   133   %  3.4585
     735      21.99592     77.05576         99.05168  35.86280   134   %  3.4603
     740      21.95599     77.46641         99.42240  36.23352   135   %  3.4636
     746      21.95651     77.98884         99.94535  36.75648   136   %  3.4654
     752      21.95705     78.53964        100.49669  37.30781   137   %  3.4672


           POTENTIAL ENERGY HAS STOPPED DROPPING


 **********************
 *                    *
 * JOB ENDED NORMALLY *
 *                    *
 **********************



 TOTAL JOB TIME:             4.84 SECONDS

 == MOPAC DONE ==
