 *******************************************************************************
 ** Site#: 9872         For non-commercial use only    Version 17.247W 64BITS **
 *******************************************************************************
 ** Cite this program as: MOPAC2016, Version: 17.247W, James J. P. Stewart,   **
 ** Stewart Computational Chemistry, web: HTTP://OpenMOPAC.net. Days left: 355**
 *******************************************************************************
 **                                                                           **
 **                                MOPAC2016                                  **
 **                                                                           **
 *******************************************************************************

                              PM7 CALCULATION RESULTS


 *******************************************************************************
 *  CALCULATION DONE:                                Thu Sep 14 09:23:10 2017  *
 *  START_RES  - STARTING RESIDUE NUMBERS DEFINED
 *  Keyword:   START_RES=(3A 1157A-2001) 
 *  CHAINS     - PDB CHAIN LETTERS EXPLICITLY DEFINED
 *  Keyword:   CHAINS=(AA) 
 *  MOZYME     - USE LOCALIZED M.O.s IN SOLVING THE SCF EQUATIONS
 *
 *
 *
 *                 CHARGE ON SYSTEM = 0
 *
 *
 *
 *  EPS= 78.40 - USE ANDREAS KLAMT'S COSMO IMPLICIT SOLVATION MODEL
 *  1SCF       - DO 1 SCF AND THEN STOP 
 *  T=         - A TIME OF      2.0 WEEKS   REQUESTED
 *  DUMP=N     - RESTART FILE WRITTEN EVERY  7200.000 SECONDS
 *  GNORM=     - EXIT WHEN GRADIENT NORM DROPS BELOW   2.00    
 *  OUTPUT     - MINIMIZE OUTPUT
 *  HTML       - WRITE HTML SCRIPT TO READ PDB FILE USING JSMOL
 *******************************************************************************
START_RES=(3A 1157A-2001)  CHAINS=(AA) MOZYME output charge=0 eps=78.4    HTML gnorm=2 T=2W 1SCF
 MTH1 Chain A + NUL - H2O

 

 General Reference for PM7:
 "Optimization of Parameters for Semiempirical Methods VI: More Modifications to the 
 NDDO Approximations and Re-optimization of Parameters", J. J. P. Stewart, J. Mol. Mod., 1:32, 19 (2013)
 http://www.springerlink.com/openurl.asp?genre=article&id=doi:10.1007/s00894-012-1667-x

           Empirical Formula: C807 H1499 N209 O373 S8  =  2896 atoms


   Ion Atom No.           Label               Charge (Distances are between charged sites predicted by Lewis structure theory)
 
    1   N  346   (ATOM    346  NZ  LYS A  23)   +1
    2   N  368   (ATOM    368  NZ  LYS A  24)   +1  (2.6 Angstroms from anion  O 1470, Label: ATOM   1470  OE2 GLU A  97)
    3   C  464   (ATOM    464  CZ  ARG A  31)   +1  (5.9 Angstroms from anion  O 2262, Label: ATOM   2263  OD2 ASP A 143)
    4   C  737   (ATOM    737  CZ  ARG A  50)   +1  (3.4 Angstroms from anion  O  692, Label: ATOM    692  OE2 GLU A  46)
    5   C  761   (ATOM    761  CZ  ARG A  51)   +1  (3.5 Angstroms from anion  O  644, Label: ATOM    644  OE2 GLU A  43)
    6   C 1281   (ATOM   1281  CE1 HIS A  84)   +1  (3.2 Angstroms from anion  O 1251, Label: ATOM   1251  OD2 ASP A  82)
    7   C 2115   (ATOM   2116  CE1 HIS A 134)   +1  (5.4 Angstroms from anion  O 2474, Label: ATOM   2475  OXT VAL A 156)
    8   N 2180   (ATOM   2181  NZ  LYS A 138)   +1  (3.7 Angstroms from anion  O 2326, Label: ATOM   2327  OD2 ASP A 147)
 
    1   O  644   (ATOM    644  OE2 GLU A  43)   -1  (3.5 Angstroms from cation  C  761, Label: ATOM    761  CZ  ARG A  51)
    2   O  692   (ATOM    692  OE2 GLU A  46)   -1  (3.4 Angstroms from cation  C  737, Label: ATOM    737  CZ  ARG A  50)
    3   O 1251   (ATOM   1251  OD2 ASP A  82)   -1  (3.2 Angstroms from cation  C 1281, Label: ATOM   1281  CE1 HIS A  84)
    4   O 1470   (ATOM   1470  OE2 GLU A  97)   -1  (2.6 Angstroms from cation  N  368, Label: ATOM    368  NZ  LYS A  24)
    5   O 1841   (ATOM   1841  OD2 ASP A 119)   -1  (9.4 Angstroms from cation  C  464, Label: ATOM    464  CZ  ARG A  31)
    6   O 2262   (ATOM   2263  OD2 ASP A 143)   -1  (5.9 Angstroms from cation  C  464, Label: ATOM    464  CZ  ARG A  31)
    7   O 2326   (ATOM   2327  OD2 ASP A 147)   -1  (3.7 Angstroms from cation  N 2180, Label: ATOM   2181  NZ  LYS A 138)
    8   O 2474   (ATOM   2475  OXT VAL A 156)   -1  (5.4 Angstroms from cation  C 2115, Label: ATOM   2116  CE1 HIS A 134)

 -------------------------------------------------------------------------------
START_RES=(3A 1157A-2001)  CHAINS=(AA) MOZYME output charge=0 eps=78.4    HTML gnorm=2 T=2W 1SCF
 MTH1 Chain A + NUL - H2O



     1SCF WAS SPECIFIED, SO BFGS WAS NOT USED                 
     SCF FIELD WAS ACHIEVED                                   


                              PM7 CALCULATION
                                                       MOPAC2016 (Version: 17.247W)
                                                       Thu Sep 14 09:27:20 2017
                                                       No. of days remaining = 355




          FINAL HEAT OF FORMATION =     -23765.48952 KCAL/MOL =  -99434.80816 KJ/MOL
          VAN DER WAALS AREA      =       6536.46 SQUARE ANGSTROMS


          TOTAL ENERGY            =    -270072.90994 EV
          ELECTRONIC ENERGY       =  -29393697.81068 EV
          CORE-CORE REPULSION     =   29125659.27681 EV
          DIELECTRIC ENERGY       =        -54.45103 EV
          COSMO AREA              =       6536.46 SQUARE ANGSTROMS
          COSMO VOLUME            =      25037.06 CUBIC ANGSTROMS

          NO. OF FILLED LEVELS    =       4029
          MOLECULAR WEIGHT        =      20355.3756

          MOLECULAR DIMENSIONS (Angstroms)

            Atom       Atom       Distance
            H  2721    H   235    48.67046
            H   404    O  2447    42.06934
            H  1764    H   635    39.74335


          SCF CALCULATIONS        =          1
 
          WALL-CLOCK TIME         =  4 MINUTES AND  9.391 SECONDS
          COMPUTATION TIME        =  6 MINUTES AND 50.595 SECONDS





           Empirical Formula: C807 H1499 N209 O373 S8  =  2896 atoms


          NET CHARGE ON RESIDUES

      Residue         Charge  Anion or
                              Cation?
      ALA A   3       +0.019
      SER A   4       -0.001
      ARG A   5       -0.010
      LEU A   6       -0.001
      TYR A   7       +0.031
      THR A   8       -0.046
      LEU A   9       +0.044
      VAL A  10       -0.028
      LEU A  11       +0.023
      VAL A  12       -0.021
      LEU A  13       +0.022
      GLN A  14       +0.032
      PRO A  15       +0.022
      GLN A  16       -0.062
      ARG A  17       +0.020
      VAL A  18       +0.016
      LEU A  19       -0.015
      LEU A  20       +0.023
      GLY A  21       +0.010
      MET A  22       -0.014
      LYS A  23       +1.011  CATION
      LYS A  24       +0.897  CATION
      ARG A  25       -0.028
      GLY A  26       +0.064
      PHE A  27       -0.041
      GLY A  28       +0.001
      ALA A  29       +0.027
      GLY A  30       -0.046
      ARG A  31       +0.984  CATION
      TRP A  32       +0.032
      ASN A  33       -0.001
      GLY A  34       +0.010
      PHE A  35       -0.018
      GLY A  36       +0.003
      GLY A  37       +0.030
      LYS A  38       +0.023
      VAL A  39       -0.015
      GLN A  40       +0.092
      GLU A  41       -0.075
      GLY A  42       +0.002
      GLU A  43       -0.819  ANION
      THR A  44       +0.019
      ILE A  45       -0.034
      GLU A  46       -0.884  ANION
      ASP A  47       -0.062
      GLY A  48       +0.100
      ALA A  49       +0.014
      ARG A  50       +0.888  CATION
      ARG A  51       +0.915  CATION
      GLU A  52       -0.031
      LEU A  53       -0.008
      GLN A  54       +0.034
      GLU A  55       +0.091
      GLU A  56       -0.075
      SER A  57       +0.002
      GLY A  58       +0.024
      LEU A  59       +0.062
      THR A  60       -0.051
      VAL A  61       +0.031
      ASP A  62       -0.048
      ALA A  63       +0.026
      LEU A  64       -0.024
      HIS A  65       -0.034
      LYS A  66       +0.047
      VAL A  67       +0.029
      GLY A  68       -0.040
      GLN A  69       -0.032
      ILE A  70       +0.031
      VAL A  71       +0.022
      PHE A  72       +0.001
      GLU A  73       -0.060
      PHE A  74       +0.025
      VAL A  75       +0.016
      GLY A  76       -0.035
      GLU A  77       +0.048
      PRO A  78       +0.023
      GLU A  79       -0.008
      LEU A  80       +0.036
      MET A  81       -0.009
      ASP A  82       -0.906  ANION
      VAL A  83       +0.085
      HIS A  84       +0.878  CATION
      VAL A  85       -0.014
      PHE A  86       +0.028
      CYS A  87       +0.019
      THR A  88       +0.031
      ASP A  89       -0.033
      SER A  90       -0.011
      ILE A  91       +0.002
      GLN A  92       -0.018
      GLY A  93       +0.073
      THR A  94       -0.052
      PRO A  95       +0.034
      VAL A  96       -0.001
      GLU A  97       -0.863  ANION
      SER A  98       +0.011
      ASP A  99       -0.120
      GLU A 100       -0.007
      MET A 101       +0.050
      ARG A 102       +0.008
      PRO A 103       -0.007
      CYS A 104       +0.028
      TRP A 105       +0.012
      PHE A 106       -0.013
      GLN A 107       +0.044
      LEU A 108       +0.024
      ASP A 109       -0.057
      GLN A 110       +0.006
      ILE A 111       +0.045
      PRO A 112       +0.007
      PHE A 113       -0.003
      LYS A 114       +0.031
      ASP A 115       -0.058
      MET A 116       +0.036
      TRP A 117       +0.007
      PRO A 118       -0.026
      ASP A 119       -0.922  ANION
      ASP A 120       -0.028
      SER A 121       +0.054
      TYR A 122       +0.023
      TRP A 123       -0.009
      PHE A 124       -0.008
      PRO A 125       +0.009
      LEU A 126       +0.016
      LEU A 127       +0.021
      LEU A 128       -0.009
      GLN A 129       +0.080
      LYS A 130       +0.042
      LYS A 131       +0.018
      LYS A 132       +0.008
      PHE A 133       +0.019
      HIS A 134       +0.799  CATION
      GLY A 135       +0.040
      TYR A 136       +0.045
      PHE A 137       +0.028
      LYS A 138       +0.947  CATION
      PHE A 139       +0.052
      GLN A 140       -0.038
      GLY A 141       +0.060
      GLN A 142       -0.043
      ASP A 143       -0.969  ANION
      THR A 144       -0.017
      ILE A 145       +0.032
      LEU A 146       -0.006
      ASP A 147       -0.919  ANION
      TYR A 148       +0.041
      THR A 149       +0.010
      LEU A 150       -0.004
      ARG A 151       -0.006
      GLU A 152       +0.031
      VAL A 153       +0.051
      ASP A 154       -0.038
      THR A 155       -0.041
      VAL A 156       -0.864  ANION
      SO4 A1158       -0.004
      SO4 A1159       -0.014
 


                   Salt Bridges Found (Up to  8.0 Angstroms)

     No.          Cationic site                            Anionic site                Dist. (Angstroms)

      1  (ATOM   2115  NE2 HIS A 134)  A134(+)    (ATOM   2471  O   VAL A 156)  A156(-)      2.58
      2  (ATOM    738  NH1 ARG A  50)   A50(+)    (ATOM    692  OE2 GLU A  46)   A46(-)      2.59
      3  (ATOM    368  NZ  LYS A  24)   A24(+)    (ATOM   1470  OE2 GLU A  97)   A97(-)      2.64
      4  (ATOM    763  NH2 ARG A  51)   A51(+)    (ATOM    644  OE2 GLU A  43)   A43(-)      2.68
      5  (ATOM    466  NH2 ARG A  31)   A31(+)    (ATOM   2262  OD1 ASP A 143)  A143(-)      2.71
      6  (ATOM   1278  ND1 HIS A  84)   A84(+)    (ATOM   1250  OD1 ASP A  82)   A82(-)      3.20
      7  (ATOM   2181  NZ  LYS A 138)  A138(+)    (ATOM   2327  OD2 ASP A 147)  A147(-)      3.73
      8  (ATOM   1280  NE2 HIS A  84)   A84(+)    (ATOM   2471  O   VAL A 156)  A156(-)      6.45
      9  (ATOM    465  NH1 ARG A  31)   A31(+)    (ATOM   1840  OD1 ASP A 119)  A119(-)      6.76


 DIPOLE           X         Y         Z       TOTAL
 POINT-CHG.   -16.397   130.772    26.481   134.430
 HYBRID         4.906    16.257     7.344    18.501
 SUM          -11.491   147.029    33.825   151.306

 **********************
 *                    *
 * JOB ENDED NORMALLY *
 *                    *
 **********************



 TOTAL JOB TIME:           250.09 SECONDS

 == MOPAC DONE ==
