 *******************************************************************************
 ** Cite this program as: MOPAC2016, Version: 22.067 , James J. P. Stewart,   **
 **                           web-site: HTTP://OpenMOPAC.net.                 **
 *******************************************************************************
 **                                                                           **
 **                                MOPAC2016                                  **
 **                                                                           **
 *******************************************************************************

                              PM7 CALCULATION RESULTS

 *******************************************************************************
 *  CALCULATION DONE:                                Wed May 18 15:35:49 2022  *
 *  GEO-OK     - OVERRIDE INTERATOMIC DISTANCE AND OTHER SAFETY CHECKS
 *  SYMMETRY   - SYMMETRY CONDITIONS TO BE IMPOSED
 *  MERS=N     - NUMBER OF FUNDAMENTAL UNIT CELLS USED: 64
 *  T=         - A TIME OF 172800.0 SECONDS REQUESTED
 *  DUMP=N     - RESTART FILE WRITTEN EVERY 7200.0 SECONDS REQUESTED
 *  BCC        - THE SYSTEM IS BODY-CENTERED CUBIC
 *******************************************************************************



                    PARAMETER DEPENDENCE DATA

        REFERENCE ATOM      FUNCTION NO.    DEPENDENT ATOM(S)
            1                  2               2   31   32   43   44   55   56

            1                  3               2    3    4   21   22   23   24
                                              41   42   43
            1                  3              44   61   62   63   64   65
            3                  1               5    9   17   21   33
            3                  2               4
            4                  1               6   10   18   22   34
            5                  2               6   17   18   47   48   59   60

            5                  3               6    7    8   25   26   27   28
                                              45   46   47
            5                  3              48
            7                  1              11   13   19   23   25   29   35
                                              37   41   49
            7                  1              53   65   66   67
            7                  2               8   19   20
            8                  1              12   14   20   24   26   30   36
                                              38   42   50
            8                  1              54
            9                  2              10   21   22   33   34   63   64

            9                  3              10   11   12   29   30   31   32

           11                  2              12   23   24   35   36
           13                  2              14   25   26   37   38   49   50

           13                  3              14   15   16
           15                  1              27   31   39   43   45   51   55
                                              57   61
           15                  2              16   27   28   39   40   51   52

           16                  1              28   32   40   44   46   52   56
                                              58   62
           17                  3              18   19   20   37   38   39   40
                                              57   58   59
           17                  3              60
           29                  2              30   41   42   53   54   66   67

           33                  3              34   35   36   53   54   55   56

           45                  2              46   57   58
           47                  1              59   63
           48                  1              60   64
           49                  3              50   51   52
           61                  2              62

             DESCRIPTIONS OF THE FUNCTIONS USED
   1      X COORDINATE IS SET EQUAL TO   THE REFERENCE X COORDINATE  
   2      Y COORDINATE IS SET EQUAL TO   THE REFERENCE Y COORDINATE  
   3      Z COORDINATE IS SET EQUAL TO   THE REFERENCE Z COORDINATE  
 
 MERS=(4,4,4)   BCC SYMMETRY GEO-OK
 Diamond

   ATOM   CHEMICAL          X               Y               Z
  NUMBER   SYMBOL      (ANGSTROMS)     (ANGSTROMS)     (ANGSTROMS)
 
     1       C          0.00000000  *   0.00000000  *   0.00000000  *
     2       C         -1.54497866  *   0.00000000      0.00000000   
     3       C          2.05998578  *   2.91325979  *   0.00000000   
     4       C          0.51500711  *   2.91325979      0.00000000   
     5       C          2.05998578      0.72831495  *  -1.26147849  *
     6       C          0.51500711      0.72831495     -1.26147849   
     7       C          4.11997155  *   3.64157474  *  -1.26147849   
     8       C          2.57499289  *   3.64157474     -1.26147849   
     9       C          2.05998578     -1.45662989  *  -2.52295699  *
    10       C          0.51500711     -1.45662989     -2.52295699   
    11       C          4.11997155      1.45662989  *  -2.52295699   
    12       C          2.57499289      1.45662989     -2.52295699   
    13       C          4.11997155     -0.72831495  *  -3.78443548  *
    14       C          2.57499289     -0.72831495     -3.78443548   
    15       C          6.17995733  *   2.18494484  *  -3.78443548   
    16       C          4.63497866  *   2.18494484     -3.78443548   
    17       C          2.05998578      0.72831495      1.26147849  *
    18       C          0.51500711      0.72831495      1.26147849   
    19       C          4.11997155      3.64157474      1.26147849   
    20       C          2.57499289      3.64157474      1.26147849   
    21       C          2.05998578     -1.45662989      0.00000000   
    22       C          0.51500711     -1.45662989      0.00000000   
    23       C          4.11997155      1.45662989      0.00000000   
    24       C          2.57499289      1.45662989      0.00000000   
    25       C          4.11997155     -0.72831495     -1.26147849   
    26       C          2.57499289     -0.72831495     -1.26147849   
    27       C          6.17995733      2.18494484     -1.26147849   
    28       C          4.63497866      2.18494484     -1.26147849   
    29       C          4.11997155     -2.91325979  *  -2.52295699   
    30       C          2.57499289     -2.91325979     -2.52295699   
    31       C          6.17995733      0.00000000     -2.52295699   
    32       C          4.63497866      0.00000000     -2.52295699   
    33       C          2.05998578     -1.45662989      2.52295699  *
    34       C          0.51500711     -1.45662989      2.52295699   
    35       C          4.11997155      1.45662989      2.52295699   
    36       C          2.57499289      1.45662989      2.52295699   
    37       C          4.11997155     -0.72831495      1.26147849   
    38       C          2.57499289     -0.72831495      1.26147849   
    39       C          6.17995733      2.18494484      1.26147849   
    40       C          4.63497866      2.18494484      1.26147849   
    41       C          4.11997155     -2.91325979      0.00000000   
    42       C          2.57499289     -2.91325979      0.00000000   
    43       C          6.17995733      0.00000000      0.00000000   
    44       C          4.63497866      0.00000000      0.00000000   
    45       C          6.17995733     -2.18494484  *  -1.26147849   
    46       C          4.63497866     -2.18494484     -1.26147849   
    47       C          8.23994311  *   0.72831495     -1.26147849   
    48       C          6.69496444  *   0.72831495     -1.26147849   
    49       C          4.11997155     -0.72831495      3.78443548  *
    50       C          2.57499289     -0.72831495      3.78443548   
    51       C          6.17995733      2.18494484      3.78443548   
    52       C          4.63497866      2.18494484      3.78443548   
    53       C          4.11997155     -2.91325979      2.52295699   
    54       C          2.57499289     -2.91325979      2.52295699   
    55       C          6.17995733      0.00000000      2.52295699   
    56       C          4.63497866      0.00000000      2.52295699   
    57       C          6.17995733     -2.18494484      1.26147849   
    58       C          4.63497866     -2.18494484      1.26147849   
    59       C          8.23994311      0.72831495      1.26147849   
    60       C          6.69496444      0.72831495      1.26147849   
    61       C          6.17995733     -4.36988968  *   0.00000000   
    62       C          4.63497866     -4.36988968      0.00000000   
    63       C          8.23994311     -1.45662989      0.00000000   
    64       C          6.69496444     -1.45662989      0.00000000   
    65      Tv          4.11997155      5.82651958  *   0.00000000   
    66      Tv          4.11997155     -2.91325979     -5.04591397  *
    67      Tv          4.11997155     -2.91325979      5.04591397  *
 

                   THE SYSTEM IS A SOLID


                UNIT CELL TRANSLATION VECTORS

              X                Y              Z
    T1 =     4.1199715      5.8265196      0.0000000
    T2 =     4.1199715     -2.9132598     -5.0459140
    T3 =     4.1199715     -2.9132598      5.0459140


          CARTESIAN COORDINATES 

    NO.       ATOM           X           Y           Z

     1         C          0.0000      0.0000      0.0000
     2         C         -1.5450      0.0000      0.0000
     3         C          2.0600      2.9133      0.0000
     4         C          0.5150      2.9133      0.0000
     5         C          2.0600      0.7283     -1.2615
     6         C          0.5150      0.7283     -1.2615
     7         C          4.1200      3.6416     -1.2615
     8         C          2.5750      3.6416     -1.2615
     9         C          2.0600     -1.4566     -2.5230
    10         C          0.5150     -1.4566     -2.5230
    11         C          4.1200      1.4566     -2.5230
    12         C          2.5750      1.4566     -2.5230
    13         C          4.1200     -0.7283     -3.7844
    14         C          2.5750     -0.7283     -3.7844
    15         C          6.1800      2.1849     -3.7844
    16         C          4.6350      2.1849     -3.7844
    17         C          2.0600      0.7283      1.2615
    18         C          0.5150      0.7283      1.2615
    19         C          4.1200      3.6416      1.2615
    20         C          2.5750      3.6416      1.2615
    21         C          2.0600     -1.4566      0.0000
    22         C          0.5150     -1.4566      0.0000
    23         C          4.1200      1.4566      0.0000
    24         C          2.5750      1.4566      0.0000
    25         C          4.1200     -0.7283     -1.2615
    26         C          2.5750     -0.7283     -1.2615
    27         C          6.1800      2.1849     -1.2615
    28         C          4.6350      2.1849     -1.2615
    29         C          4.1200     -2.9133     -2.5230
    30         C          2.5750     -2.9133     -2.5230
    31         C          6.1800      0.0000     -2.5230
    32         C          4.6350      0.0000     -2.5230
    33         C          2.0600     -1.4566      2.5230
    34         C          0.5150     -1.4566      2.5230
    35         C          4.1200      1.4566      2.5230
    36         C          2.5750      1.4566      2.5230
    37         C          4.1200     -0.7283      1.2615
    38         C          2.5750     -0.7283      1.2615
    39         C          6.1800      2.1849      1.2615
    40         C          4.6350      2.1849      1.2615
    41         C          4.1200     -2.9133      0.0000
    42         C          2.5750     -2.9133      0.0000
    43         C          6.1800      0.0000      0.0000
    44         C          4.6350      0.0000      0.0000
    45         C          6.1800     -2.1849     -1.2615
    46         C          4.6350     -2.1849     -1.2615
    47         C          8.2399      0.7283     -1.2615
    48         C          6.6950      0.7283     -1.2615
    49         C          4.1200     -0.7283      3.7844
    50         C          2.5750     -0.7283      3.7844
    51         C          6.1800      2.1849      3.7844
    52         C          4.6350      2.1849      3.7844
    53         C          4.1200     -2.9133      2.5230
    54         C          2.5750     -2.9133      2.5230
    55         C          6.1800      0.0000      2.5230
    56         C          4.6350      0.0000      2.5230
    57         C          6.1800     -2.1849      1.2615
    58         C          4.6350     -2.1849      1.2615
    59         C          8.2399      0.7283      1.2615
    60         C          6.6950      0.7283      1.2615
    61         C          6.1800     -4.3699      0.0000
    62         C          4.6350     -4.3699      0.0000
    63         C          8.2399     -1.4566      0.0000
    64         C          6.6950     -1.4566      0.0000

 General Reference for PM7:
 "Optimization of Parameters for Semiempirical Methods VI: More Modifications to the 
 NDDO Approximations and Re-optimization of Parameters", J. J. P. Stewart, J. Mol. Mod., 1:32, 19 (2013)
 https://link.springer.com/article/10.1007/s00894-012-1667-x

           Empirical Formula: C64  =    64 atoms



      RHF CALCULATION, NO. OF DOUBLY OCCUPIED LEVELS = 128


          Geometry optimization using EF

          DIAGONAL MATRIX USED AS START HESSIAN

   1 a, b, c, alpha, beta, gamma:  3.569  3.569  3.569  90.00  90.01  89.99 Vol:    5.68 Density: 3.510 HoF:     2.851 Grad:   5.16
 CYCLE:     1 TIME:   5.957 TIME LEFT:  2.00D  GRAD.:    41.241 HEAT:  182.4876
   2 a, b, c, alpha, beta, gamma:  3.568  3.568  3.568  90.00  90.00  90.00 Vol:    5.68 Density: 3.513 HoF:     2.851 Grad:   4.84
 CYCLE:     2 TIME:  31.973 TIME LEFT:  2.00D  GRAD.:    38.699 HEAT:  182.4886
   3 a, b, c, alpha, beta, gamma:  3.568  3.568  3.568  90.00  90.00  90.00 Vol:    5.68 Density: 3.512 HoF:     2.851 Grad:   4.32
 CYCLE:     3 TIME:   2.922 TIME LEFT:  2.00D  GRAD.:    34.559 HEAT:  182.4910
   4 a, b, c, alpha, beta, gamma:  3.568  3.568  3.568  90.00  90.00  90.00 Vol:    5.68 Density: 3.512 HoF:     2.851 Grad:   3.93
 CYCLE:     4 TIME:   2.918 TIME LEFT:  2.00D  GRAD.:    31.435 HEAT:  182.4938
   5 a, b, c, alpha, beta, gamma:  3.568  3.568  3.568  90.00  90.00  90.00 Vol:    5.68 Density: 3.512 HoF:     2.852 Grad:   3.61
 CYCLE:     5 TIME:   2.930 TIME LEFT:  2.00D  GRAD.:    28.872 HEAT:  182.4970
   6 a, b, c, alpha, beta, gamma:  3.568  3.568  3.568  90.00  90.00  90.00 Vol:    5.68 Density: 3.512 HoF:     2.852 Grad:   3.34
 CYCLE:     6 TIME:   2.953 TIME LEFT:  2.00D  GRAD.:    26.747 HEAT:  182.5003
   7 a, b, c, alpha, beta, gamma:  3.568  3.568  3.568  90.00  90.00  90.00 Vol:    5.68 Density: 3.511 HoF:     2.852 Grad:   3.10
 CYCLE:     7 TIME:   2.906 TIME LEFT:  2.00D  GRAD.:    24.805 HEAT:  182.5054
   8 a, b, c, alpha, beta, gamma:  3.569  3.569  3.569  89.99  90.00  90.00 Vol:    5.68 Density: 3.511 HoF:     2.852 Grad:   2.64
 CYCLE:     8 TIME:   2.945 TIME LEFT:  2.00D  GRAD.:    21.140 HEAT:  182.5142

     TRUST RADIUS NOW LESS THAN  0.00010 OPTIMIZATION TERMINATING
      THE GEOMETRY MAY NOT BE COMPLETELY OPTIMIZED
      (TO CONTINUE, ADD 'LET DDMIN=0.0' TO THE KEYWORD LINE)

 -------------------------------------------------------------------------------
 MERS=(4,4,4)   BCC SYMMETRY GEO-OK
 Diamond



     GEOMETRY OPTIMISED USING EIGENVECTOR FOLLOWING (EF).     
     SCF FIELD WAS ACHIEVED                                   


                              PM7 CALCULATION
                                                       MOPAC2016 (Version: 22.067 )
                                                       Wed May 18 15:36:49 2022




          FINAL HEAT OF FORMATION =        182.48689 KCAL/MOL =     763.52514 KJ/MOL
          H.o.F. per unit cell    =          2.85136 KCAL, for 64 unit cells, unit cell = C1



          GRADIENT NORM           =         41.24069          =       5.15509 PER ATOM
          IONIZATION POTENTIAL    =          9.888352 EV
          HOMO LUMO ENERGIES (EV) =         -9.888 -0.051
          NO. OF FILLED LEVELS    =        128
          MOLECULAR WEIGHT        =        768.7040         POINT GROUP:  C3v 

          VOLUME OF UNIT CELL     =          5.678 CUBIC ANGSTROMS

          DENSITY                 =          3.513 GRAMS/CC
                              A   =          3.568 ANGSTROMS
                              B   =          3.568 ANGSTROMS
                              C   =          3.568 ANGSTROMS
                            ALPHA =         90.000 DEGREES
                            BETA  =         90.000 DEGREES
                            GAMMA =         90.000 DEGREES

          VOLUME OF CLUSTER       =        363.38293 ANGSTROMS**3 =  218.834 CM**3/MOLE
 


          SCF CALCULATIONS        =         21
 
          WALL-CLOCK TIME         =         59.445 SECONDS
          COMPUTATION TIME        =  1 MINUTE AND 46.563 SECONDS



       FINAL  POINT  AND  DERIVATIVES

   PARAMETER     ATOM    TYPE            VALUE        GRADIENT
      1          1  C    CARTESIAN X     0.000000     -0.005420  KCAL/ANGSTROM
      2          1  C    CARTESIAN Y     0.000000     -0.006339  KCAL/ANGSTROM
      3          1  C    CARTESIAN Z     0.000000      0.000287  KCAL/ANGSTROM
      4          2  C    CARTESIAN X    -1.544979      0.008654  KCAL/ANGSTROM
      5          3  C    CARTESIAN X     2.059986     -0.051715  KCAL/ANGSTROM
      6          3  C    CARTESIAN Y     2.913260     -0.007336  KCAL/ANGSTROM
      7          4  C    CARTESIAN X     0.515007      0.045082  KCAL/ANGSTROM
      8          5  C    CARTESIAN Y     0.728315      0.064656  KCAL/ANGSTROM
      9          5  C    CARTESIAN Z    -1.261478      0.094638  KCAL/ANGSTROM
     10          7  C    CARTESIAN X     4.119972    -31.056242  KCAL/ANGSTROM
     11          7  C    CARTESIAN Y     3.641575      0.012466  KCAL/ANGSTROM
     12          8  C    CARTESIAN X     2.574993      0.130969  KCAL/ANGSTROM
     13          9  C    CARTESIAN Y    -1.456630      0.013716  KCAL/ANGSTROM
     14          9  C    CARTESIAN Z    -2.522957      0.118749  KCAL/ANGSTROM
     15         11  C    CARTESIAN Y     1.456630      0.007579  KCAL/ANGSTROM
     16         13  C    CARTESIAN Y    -0.728315     -0.040916  KCAL/ANGSTROM
     17         13  C    CARTESIAN Z    -3.784435      0.116160  KCAL/ANGSTROM
     18         15  C    CARTESIAN X     6.179957     -0.090447  KCAL/ANGSTROM
     19         15  C    CARTESIAN Y     2.184945     -0.058852  KCAL/ANGSTROM
     20         16  C    CARTESIAN X     4.634979      0.052290  KCAL/ANGSTROM
     21         17  C    CARTESIAN Z     1.261478     -0.094645  KCAL/ANGSTROM
     22         29  C    CARTESIAN Y    -2.913260     14.560960  KCAL/ANGSTROM
     23         33  C    CARTESIAN Z     2.522957     -0.118751  KCAL/ANGSTROM
     24         45  C    CARTESIAN Y    -2.184945      0.036705  KCAL/ANGSTROM
     25         47  C    CARTESIAN X     8.239943     -0.027786  KCAL/ANGSTROM
     26         48  C    CARTESIAN X     6.694964      0.017447  KCAL/ANGSTROM
     27         49  C    CARTESIAN Z     3.784435     -0.116151  KCAL/ANGSTROM
     28         61  C    CARTESIAN Y    -4.369890     -0.005376  KCAL/ANGSTROM
     29         65 Tv    CARTESIAN Y     5.826520    -14.579207  KCAL/ANGSTROM
     30         66 Tv    CARTESIAN Z    -5.045914     12.479281  KCAL/ANGSTROM
     31         67 Tv    CARTESIAN Z     5.045914    -12.485144  KCAL/ANGSTROM




   ATOM   CHEMICAL          X               Y               Z
  NUMBER   SYMBOL      (ANGSTROMS)     (ANGSTROMS)     (ANGSTROMS)
 
     1       C          0.00000000  *   0.00000000  *   0.00000000  *
     2       C         -1.54497866  *   0.00000000      0.00000000   
     3       C          2.05998578  *   2.91325979  *   0.00000000   
     4       C          0.51500711  *   2.91325979      0.00000000   
     5       C          2.05998578      0.72831495  *  -1.26147849  *
     6       C          0.51500711      0.72831495     -1.26147849   
     7       C          4.11997155  *   3.64157474  *  -1.26147849   
     8       C          2.57499289  *   3.64157474     -1.26147849   
     9       C          2.05998578     -1.45662989  *  -2.52295699  *
    10       C          0.51500711     -1.45662989     -2.52295699   
    11       C          4.11997155      1.45662989  *  -2.52295699   
    12       C          2.57499289      1.45662989     -2.52295699   
    13       C          4.11997155     -0.72831495  *  -3.78443548  *
    14       C          2.57499289     -0.72831495     -3.78443548   
    15       C          6.17995733  *   2.18494484  *  -3.78443548   
    16       C          4.63497866  *   2.18494484     -3.78443548   
    17       C          2.05998578      0.72831495      1.26147849  *
    18       C          0.51500711      0.72831495      1.26147849   
    19       C          4.11997155      3.64157474      1.26147849   
    20       C          2.57499289      3.64157474      1.26147849   
    21       C          2.05998578     -1.45662989      0.00000000   
    22       C          0.51500711     -1.45662989      0.00000000   
    23       C          4.11997155      1.45662989      0.00000000   
    24       C          2.57499289      1.45662989      0.00000000   
    25       C          4.11997155     -0.72831495     -1.26147849   
    26       C          2.57499289     -0.72831495     -1.26147849   
    27       C          6.17995733      2.18494484     -1.26147849   
    28       C          4.63497866      2.18494484     -1.26147849   
    29       C          4.11997155     -2.91325979  *  -2.52295699   
    30       C          2.57499289     -2.91325979     -2.52295699   
    31       C          6.17995733      0.00000000     -2.52295699   
    32       C          4.63497866      0.00000000     -2.52295699   
    33       C          2.05998578     -1.45662989      2.52295699  *
    34       C          0.51500711     -1.45662989      2.52295699   
    35       C          4.11997155      1.45662989      2.52295699   
    36       C          2.57499289      1.45662989      2.52295699   
    37       C          4.11997155     -0.72831495      1.26147849   
    38       C          2.57499289     -0.72831495      1.26147849   
    39       C          6.17995733      2.18494484      1.26147849   
    40       C          4.63497866      2.18494484      1.26147849   
    41       C          4.11997155     -2.91325979      0.00000000   
    42       C          2.57499289     -2.91325979      0.00000000   
    43       C          6.17995733      0.00000000      0.00000000   
    44       C          4.63497866      0.00000000      0.00000000   
    45       C          6.17995733     -2.18494484  *  -1.26147849   
    46       C          4.63497866     -2.18494484     -1.26147849   
    47       C          8.23994311  *   0.72831495     -1.26147849   
    48       C          6.69496444  *   0.72831495     -1.26147849   
    49       C          4.11997155     -0.72831495      3.78443548  *
    50       C          2.57499289     -0.72831495      3.78443548   
    51       C          6.17995733      2.18494484      3.78443548   
    52       C          4.63497866      2.18494484      3.78443548   
    53       C          4.11997155     -2.91325979      2.52295699   
    54       C          2.57499289     -2.91325979      2.52295699   
    55       C          6.17995733      0.00000000      2.52295699   
    56       C          4.63497866      0.00000000      2.52295699   
    57       C          6.17995733     -2.18494484      1.26147849   
    58       C          4.63497866     -2.18494484      1.26147849   
    59       C          8.23994311      0.72831495      1.26147849   
    60       C          6.69496444      0.72831495      1.26147849   
    61       C          6.17995733     -4.36988968  *   0.00000000   
    62       C          4.63497866     -4.36988968      0.00000000   
    63       C          8.23994311     -1.45662989      0.00000000   
    64       C          6.69496444     -1.45662989      0.00000000   
    65      Tv          4.11997155      5.82651958  *   0.00000000   
    66      Tv          4.11997155     -2.91325979     -5.04591397  *
    67      Tv          4.11997155     -2.91325979      5.04591397  *

                             CARTESIAN COORDINATES

   1    C        0.000000000     0.000000000     0.000000000
   2    C       -1.544978660     0.000000000     0.000000000
   3    C        2.059985780     2.913259790     0.000000000
   4    C        0.515007110     2.913259790     0.000000000
   5    C        2.059985780     0.728314950    -1.261478490
   6    C        0.515007110     0.728314950    -1.261478490
   7    C        4.119971550     3.641574740    -1.261478490
   8    C        2.574992890     3.641574740    -1.261478490
   9    C        2.059985780    -1.456629890    -2.522956990
  10    C        0.515007110    -1.456629890    -2.522956990
  11    C        4.119971550     1.456629890    -2.522956990
  12    C        2.574992890     1.456629890    -2.522956990
  13    C        4.119971550    -0.728314950    -3.784435480
  14    C        2.574992890    -0.728314950    -3.784435480
  15    C        6.179957330     2.184944840    -3.784435480
  16    C        4.634978660     2.184944840    -3.784435480
  17    C        2.059985780     0.728314950     1.261478490
  18    C        0.515007110     0.728314950     1.261478490
  19    C        4.119971550     3.641574740     1.261478490
  20    C        2.574992890     3.641574740     1.261478490
  21    C        2.059985780    -1.456629890     0.000000000
  22    C        0.515007110    -1.456629890     0.000000000
  23    C        4.119971550     1.456629890     0.000000000
  24    C        2.574992890     1.456629890     0.000000000
  25    C        4.119971550    -0.728314950    -1.261478490
  26    C        2.574992890    -0.728314950    -1.261478490
  27    C        6.179957330     2.184944840    -1.261478490
  28    C        4.634978660     2.184944840    -1.261478490
  29    C        4.119971550    -2.913259790    -2.522956990
  30    C        2.574992890    -2.913259790    -2.522956990
  31    C        6.179957330     0.000000000    -2.522956990
  32    C        4.634978660     0.000000000    -2.522956990
  33    C        2.059985780    -1.456629890     2.522956990
  34    C        0.515007110    -1.456629890     2.522956990
  35    C        4.119971550     1.456629890     2.522956990
  36    C        2.574992890     1.456629890     2.522956990
  37    C        4.119971550    -0.728314950     1.261478490
  38    C        2.574992890    -0.728314950     1.261478490
  39    C        6.179957330     2.184944840     1.261478490
  40    C        4.634978660     2.184944840     1.261478490
  41    C        4.119971550    -2.913259790     0.000000000
  42    C        2.574992890    -2.913259790     0.000000000
  43    C        6.179957330     0.000000000     0.000000000
  44    C        4.634978660     0.000000000     0.000000000
  45    C        6.179957330    -2.184944840    -1.261478490
  46    C        4.634978660    -2.184944840    -1.261478490
  47    C        8.239943110     0.728314950    -1.261478490
  48    C        6.694964440     0.728314950    -1.261478490
  49    C        4.119971550    -0.728314950     3.784435480
  50    C        2.574992890    -0.728314950     3.784435480
  51    C        6.179957330     2.184944840     3.784435480
  52    C        4.634978660     2.184944840     3.784435480
  53    C        4.119971550    -2.913259790     2.522956990
  54    C        2.574992890    -2.913259790     2.522956990
  55    C        6.179957330     0.000000000     2.522956990
  56    C        4.634978660     0.000000000     2.522956990
  57    C        6.179957330    -2.184944840     1.261478490
  58    C        4.634978660    -2.184944840     1.261478490
  59    C        8.239943110     0.728314950     1.261478490
  60    C        6.694964440     0.728314950     1.261478490
  61    C        6.179957330    -4.369889680     0.000000000
  62    C        4.634978660    -4.369889680     0.000000000
  63    C        8.239943110    -1.456629890     0.000000000
  64    C        6.694964440    -1.456629890     0.000000000


           Empirical Formula: C64  =    64 atoms



                  EIGENVALUES  
 -37.95826 -34.95659 -34.95622 -34.95609 -34.95603 -34.95580 -34.95553 -30.70367
 -30.70344 -30.70338 -30.70325 -30.70323 -30.70311 -30.69903 -30.69872 -30.69870
 -30.69852 -30.69826 -30.69802 -26.37679 -26.37462 -26.37451 -26.37442 -26.35027
 -26.35014 -26.34995 -26.34980 -23.45514 -23.45505 -23.45493 -23.45298 -23.45288
 -23.45279 -22.02559 -22.02541 -22.02511 -22.02489 -22.02486 -22.02461 -22.02296
 -22.02275 -22.02267 -22.02241 -22.02200 -22.02193 -17.97999 -17.97955 -17.97951
 -17.97944 -17.97939 -17.97903 -17.97659 -17.97625 -17.97601 -17.97587 -17.97569
 -17.97528 -17.49045 -17.49041 -17.49040 -17.49029 -17.49029 -17.49027 -17.48896
 -17.48873 -17.48869 -17.48866 -17.48858 -17.48841 -16.30459 -16.30433 -16.30422
 -16.30420 -16.30391 -16.30368 -16.30252 -16.30232 -16.30223 -16.30202 -16.30195
 -16.30173 -15.68756 -15.68755 -15.68755 -15.68496 -15.68496 -15.68495 -13.52715
 -13.52709 -13.52693 -13.52669 -13.52650 -13.52635 -13.11600 -13.11583 -13.11582
 -13.11568 -13.11558 -13.11547 -13.11543 -13.11537 -13.11532 -13.11525 -13.11522
 -13.11515 -12.34829 -12.34823 -12.34808 -12.34797 -12.34797 -12.34792 -12.34771
 -12.34769 -12.34765 -12.34765 -12.34757 -12.34754 -12.24698 -12.24698 -12.24698
 -12.24509 -12.24509 -12.24507 -12.24490 -12.24488  -9.89103  -9.88838  -9.88835
  -0.05121  -0.04875  -0.04872   0.96131   0.96134   0.96153   0.96173   0.96192
   0.96205   1.56601   1.56602   1.56602   1.56813   1.56814   1.56814   1.56818
   1.56820   1.64872   1.64875   1.64894   1.64905   1.64906   1.64909   1.64939
   1.64942   1.64945   1.64945   1.64954   1.64958   1.88020   1.88035   1.88039
   1.88052   1.88061   1.88071   1.88086   1.88092   1.88100   1.88102   1.88103
   1.88112   1.90174   1.90190   1.90200   1.90203   1.90239   1.90258   1.90344
   1.90362   1.90383   1.90403   1.90422   1.90441   2.59130   2.59351   2.59366
   2.59376   2.62180   2.62188   2.62199   2.62390   2.62401   2.62410   2.78012
   2.78015   2.78018   2.78027   2.78027   2.78032   2.78147   2.78170   2.78175
   2.78178   2.78186   2.78202   2.99599   2.99641   2.99645   2.99650   2.99657
   2.99691   2.99917   2.99951   2.99969   2.99989   3.00001   3.00039   3.09200
   3.09201   3.09201   3.09472   3.09473   3.09473   3.12517   3.24423   3.24444
   3.24475   3.24494   3.24500   3.24525   3.24678   3.24698   3.24709   3.24735
   3.24779   3.24782   3.41368   3.41405   3.41420   3.41425   3.41449   3.41477
   3.61347   3.61365   3.61368   3.61387   3.61387   3.61394   3.61811   3.61844
   3.61844   3.61863   3.61895   3.61914   4.00436   4.00446   4.00464   4.00481


              NET ATOMIC CHARGES AND DIPOLE CONTRIBUTIONS

  ATOM NO.   TYPE          CHARGE      No. of ELECS.   s-Pop       p-Pop       
    1          C          -0.000054        4.0001     1.07267     2.92738
    2          C           0.000042        4.0000     1.07271     2.92725
    3          C          -0.000109        4.0001     1.07266     2.92745
    4          C          -0.000001        4.0000     1.07269     2.92731
    5          C          -0.000057        4.0001     1.07267     2.92738
    6          C           0.000007        4.0000     1.07268     2.92732
    7          C           0.000019        4.0000     1.07268     2.92730
    8          C           0.000037        4.0000     1.07269     2.92727
    9          C          -0.000057        4.0001     1.07267     2.92739
   10          C          -0.000041        4.0000     1.07269     2.92735
   11          C           0.000029        4.0000     1.07269     2.92728
   12          C           0.000073        3.9999     1.07271     2.92721
   13          C           0.000027        4.0000     1.07271     2.92727
   14          C           0.000015        4.0000     1.07270     2.92729
   15          C          -0.000057        4.0001     1.07268     2.92737
   16          C          -0.000063        4.0001     1.07269     2.92737
   17          C          -0.000063        4.0001     1.07267     2.92739
   18          C           0.000015        4.0000     1.07267     2.92731
   19          C           0.000018        4.0000     1.07268     2.92731
   20          C           0.000036        4.0000     1.07268     2.92728
   21          C          -0.000030        4.0000     1.07267     2.92736
   22          C          -0.000001        4.0000     1.07266     2.92734
   23          C           0.000079        3.9999     1.07268     2.92724
   24          C           0.000073        3.9999     1.07269     2.92724
   25          C           0.000076        3.9999     1.07269     2.92724
   26          C           0.000045        4.0000     1.07268     2.92727
   27          C          -0.000038        4.0000     1.07267     2.92737
   28          C          -0.000038        4.0000     1.07266     2.92738
   29          C           0.000009        4.0000     1.07268     2.92731
   30          C           0.000036        4.0000     1.07269     2.92728
   31          C          -0.000023        4.0000     1.07267     2.92736
   32          C          -0.000046        4.0000     1.07266     2.92738
   33          C          -0.000056        4.0001     1.07267     2.92739
   34          C          -0.000045        4.0000     1.07268     2.92737
   35          C           0.000031        4.0000     1.07269     2.92728
   36          C           0.000069        3.9999     1.07270     2.92723
   37          C           0.000083        3.9999     1.07269     2.92723
   38          C           0.000042        4.0000     1.07268     2.92728
   39          C          -0.000035        4.0000     1.07267     2.92736
   40          C          -0.000042        4.0000     1.07265     2.92739
   41          C          -0.000005        4.0000     1.07267     2.92734
   42          C           0.000084        3.9999     1.07268     2.92724
   43          C           0.000034        4.0000     1.07267     2.92730
   44          C           0.000014        4.0000     1.07267     2.92732
   45          C          -0.000030        4.0000     1.07268     2.92735
   46          C           0.000007        4.0000     1.07267     2.92732
   47          C           0.000091        3.9999     1.07269     2.92722
   48          C          -0.000048        4.0000     1.07269     2.92736
   49          C           0.000033        4.0000     1.07271     2.92725
   50          C           0.000011        4.0000     1.07269     2.92730
   51          C          -0.000054        4.0001     1.07269     2.92736
   52          C          -0.000066        4.0001     1.07269     2.92738
   53          C           0.000019        4.0000     1.07270     2.92728
   54          C           0.000033        4.0000     1.07269     2.92728
   55          C          -0.000017        4.0000     1.07268     2.92734
   56          C          -0.000050        4.0000     1.07266     2.92739
   57          C          -0.000025        4.0000     1.07269     2.92734
   58          C          -0.000001        4.0000     1.07268     2.92732
   59          C           0.000093        3.9999     1.07270     2.92721
   60          C          -0.000047        4.0000     1.07270     2.92735
   61          C          -0.000020        4.0000     1.07271     2.92731
   62          C          -0.000090        4.0001     1.07269     2.92740
   63          C           0.000087        3.9999     1.07272     2.92719
   64          C          -0.000058        4.0001     1.07269     2.92737


          ATOMIC ORBITAL ELECTRON POPULATIONS

     Atom    s        px        py        pz   
    1  C   1.07267   0.97582   0.97578   0.97578
    2  C   1.07271   0.97570   0.97579   0.97576
    3  C   1.07266   0.97578   0.97584   0.97583
    4  C   1.07269   0.97574   0.97584   0.97573
    5  C   1.07267   0.97576   0.97580   0.97582
    6  C   1.07268   0.97576   0.97579   0.97576
    7  C   1.07268   0.97579   0.97575   0.97576
    8  C   1.07269   0.97578   0.97576   0.97573
    9  C   1.07267   0.97576   0.97581   0.97581
   10  C   1.07269   0.97578   0.97577   0.97580
   11  C   1.07269   0.97580   0.97573   0.97575
   12  C   1.07271   0.97577   0.97572   0.97572
   13  C   1.07271   0.97579   0.97573   0.97575
   14  C   1.07270   0.97578   0.97577   0.97574
   15  C   1.07268   0.97573   0.97582   0.97582
   16  C   1.07269   0.97577   0.97584   0.97576
   17  C   1.07267   0.97576   0.97580   0.97583
   18  C   1.07267   0.97576   0.97578   0.97577
   19  C   1.07268   0.97579   0.97574   0.97578
   20  C   1.07268   0.97578   0.97576   0.97575
   21  C   1.07267   0.97575   0.97580   0.97581
   22  C   1.07266   0.97578   0.97577   0.97580
   23  C   1.07268   0.97578   0.97573   0.97573
   24  C   1.07269   0.97577   0.97570   0.97577
   25  C   1.07269   0.97581   0.97570   0.97574
   26  C   1.07268   0.97578   0.97574   0.97575
   27  C   1.07267   0.97576   0.97575   0.97585
   28  C   1.07266   0.97577   0.97583   0.97579
   29  C   1.07268   0.97578   0.97576   0.97576
   30  C   1.07269   0.97577   0.97576   0.97574
   31  C   1.07267   0.97575   0.97581   0.97580
   32  C   1.07266   0.97580   0.97579   0.97579
   33  C   1.07267   0.97576   0.97581   0.97581
   34  C   1.07268   0.97577   0.97576   0.97583
   35  C   1.07269   0.97580   0.97573   0.97575
   36  C   1.07270   0.97577   0.97571   0.97575
   37  C   1.07269   0.97581   0.97570   0.97572
   38  C   1.07268   0.97578   0.97573   0.97577
   39  C   1.07267   0.97577   0.97576   0.97584
   40  C   1.07265   0.97577   0.97582   0.97580
   41  C   1.07267   0.97581   0.97576   0.97577
   42  C   1.07268   0.97576   0.97574   0.97573
   43  C   1.07267   0.97576   0.97576   0.97578
   44  C   1.07267   0.97577   0.97577   0.97578
   45  C   1.07268   0.97576   0.97583   0.97577
   46  C   1.07267   0.97577   0.97576   0.97580
   47  C   1.07269   0.97575   0.97574   0.97572
   48  C   1.07269   0.97576   0.97579   0.97581
   49  C   1.07271   0.97579   0.97573   0.97573
   50  C   1.07269   0.97577   0.97576   0.97576
   51  C   1.07269   0.97573   0.97583   0.97580
   52  C   1.07269   0.97577   0.97583   0.97578
   53  C   1.07270   0.97579   0.97577   0.97572
   54  C   1.07269   0.97578   0.97576   0.97574
   55  C   1.07268   0.97575   0.97582   0.97576
   56  C   1.07266   0.97580   0.97579   0.97579
   57  C   1.07269   0.97576   0.97583   0.97575
   58  C   1.07268   0.97577   0.97576   0.97579
   59  C   1.07270   0.97575   0.97575   0.97571
   60  C   1.07270   0.97576   0.97580   0.97579
   61  C   1.07271   0.97572   0.97582   0.97577
   62  C   1.07269   0.97580   0.97577   0.97584
   63  C   1.07272   0.97574   0.97573   0.97572
   64  C   1.07269   0.97578   0.97578   0.97580
 *******************************************************************************
 ** Cite this program as: MOPAC2016, Version: 22.067 , James J. P. Stewart,   **
 **                           web-site: HTTP://OpenMOPAC.net.                 **
 *******************************************************************************
 **                                                                           **
 **                                MOPAC2016                                  **
 **                                                                           **
 *******************************************************************************

                              PM7 CALCULATION RESULTS

 *******************************************************************************
 *  CALCULATION DONE:                                Wed May 18 15:36:49 2022  *
 *  BRZ         - Write file <name>.brz for use by program BZ
 *  GEO-OK     - OVERRIDE INTERATOMIC DISTANCE AND OTHER SAFETY CHECKS
 *  SYMMETRY   - SYMMETRY CONDITIONS TO BE IMPOSED
 *  MERS=N     - NUMBER OF FUNDAMENTAL UNIT CELLS USED: 64
 *  OLDGEO     - PREVIOUS GEOMETRY TO BE USED
 *  FORCE      - FORCE CALCULATION SPECIFIED
 *  T=         - A TIME OF 172800.0 SECONDS REQUESTED
 *  DUMP=N     - RESTART FILE WRITTEN EVERY 7200.0 SECONDS REQUESTED
 *  BCC        - THE SYSTEM IS BODY-CENTERED CUBIC
 *******************************************************************************



                    PARAMETER DEPENDENCE DATA

        REFERENCE ATOM      FUNCTION NO.    DEPENDENT ATOM(S)

             DESCRIPTIONS OF THE FUNCTIONS USED
 
oldgeo force MERS=(4,4,4) BCC SYMMETRY geo-ok brz
 Diamond

   ATOM   CHEMICAL          X               Y               Z
  NUMBER   SYMBOL      (ANGSTROMS)     (ANGSTROMS)     (ANGSTROMS)
 
     1       C          0.00000000  *   0.00000000  *   0.00000000  *
     2       C         -1.54497866  *   0.00000000      0.00000000   
     3       C          2.05998578  *   2.91325979  *   0.00000000   
     4       C          0.51500711  *   2.91325979      0.00000000   
     5       C          2.05998578      0.72831495  *  -1.26147849  *
     6       C          0.51500711      0.72831495     -1.26147849   
     7       C          4.11997155  *   3.64157474  *  -1.26147849   
     8       C          2.57499289  *   3.64157474     -1.26147849   
     9       C          2.05998578     -1.45662989  *  -2.52295699  *
    10       C          0.51500711     -1.45662989     -2.52295699   
    11       C          4.11997155      1.45662989  *  -2.52295699   
    12       C          2.57499289      1.45662989     -2.52295699   
    13       C          4.11997155     -0.72831495  *  -3.78443548  *
    14       C          2.57499289     -0.72831495     -3.78443548   
    15       C          6.17995733  *   2.18494484  *  -3.78443548   
    16       C          4.63497866  *   2.18494484     -3.78443548   
    17       C          2.05998578      0.72831495      1.26147849  *
    18       C          0.51500711      0.72831495      1.26147849   
    19       C          4.11997155      3.64157474      1.26147849   
    20       C          2.57499289      3.64157474      1.26147849   
    21       C          2.05998578     -1.45662989      0.00000000   
    22       C          0.51500711     -1.45662989      0.00000000   
    23       C          4.11997155      1.45662989      0.00000000   
    24       C          2.57499289      1.45662989      0.00000000   
    25       C          4.11997155     -0.72831495     -1.26147849   
    26       C          2.57499289     -0.72831495     -1.26147849   
    27       C          6.17995733      2.18494484     -1.26147849   
    28       C          4.63497866      2.18494484     -1.26147849   
    29       C          4.11997155     -2.91325979  *  -2.52295699   
    30       C          2.57499289     -2.91325979     -2.52295699   
    31       C          6.17995733      0.00000000     -2.52295699   
    32       C          4.63497866      0.00000000     -2.52295699   
    33       C          2.05998578     -1.45662989      2.52295699  *
    34       C          0.51500711     -1.45662989      2.52295699   
    35       C          4.11997155      1.45662989      2.52295699   
    36       C          2.57499289      1.45662989      2.52295699   
    37       C          4.11997155     -0.72831495      1.26147849   
    38       C          2.57499289     -0.72831495      1.26147849   
    39       C          6.17995733      2.18494484      1.26147849   
    40       C          4.63497866      2.18494484      1.26147849   
    41       C          4.11997155     -2.91325979      0.00000000   
    42       C          2.57499289     -2.91325979      0.00000000   
    43       C          6.17995733      0.00000000      0.00000000   
    44       C          4.63497866      0.00000000      0.00000000   
    45       C          6.17995733     -2.18494484  *  -1.26147849   
    46       C          4.63497866     -2.18494484     -1.26147849   
    47       C          8.23994311  *   0.72831495     -1.26147849   
    48       C          6.69496444  *   0.72831495     -1.26147849   
    49       C          4.11997155     -0.72831495      3.78443548  *
    50       C          2.57499289     -0.72831495      3.78443548   
    51       C          6.17995733      2.18494484      3.78443548   
    52       C          4.63497866      2.18494484      3.78443548   
    53       C          4.11997155     -2.91325979      2.52295699   
    54       C          2.57499289     -2.91325979      2.52295699   
    55       C          6.17995733      0.00000000      2.52295699   
    56       C          4.63497866      0.00000000      2.52295699   
    57       C          6.17995733     -2.18494484      1.26147849   
    58       C          4.63497866     -2.18494484      1.26147849   
    59       C          8.23994311      0.72831495      1.26147849   
    60       C          6.69496444      0.72831495      1.26147849   
    61       C          6.17995733     -4.36988968  *   0.00000000   
    62       C          4.63497866     -4.36988968      0.00000000   
    63       C          8.23994311     -1.45662989      0.00000000   
    64       C          6.69496444     -1.45662989      0.00000000   
    65      Tv          4.11997155      5.82651958  *   0.00000000   
    66      Tv          4.11997155     -2.91325979     -5.04591397  *
    67      Tv          4.11997155     -2.91325979      5.04591397  *
 


          CARTESIAN COORDINATES 

    NO.       ATOM           X           Y           Z

     1         C          0.0000      0.0000      0.0000
     2         C         -1.5450      0.0000      0.0000
     3         C          2.0600      2.9133      0.0000
     4         C          0.5150      2.9133      0.0000
     5         C          2.0600      0.7283     -1.2615
     6         C          0.5150      0.7283     -1.2615
     7         C          4.1200      3.6416     -1.2615
     8         C          2.5750      3.6416     -1.2615
     9         C          2.0600     -1.4566     -2.5230
    10         C          0.5150     -1.4566     -2.5230
    11         C          4.1200      1.4566     -2.5230
    12         C          2.5750      1.4566     -2.5230
    13         C          4.1200     -0.7283     -3.7844
    14         C          2.5750     -0.7283     -3.7844
    15         C          6.1800      2.1849     -3.7844
    16         C          4.6350      2.1849     -3.7844
    17         C          2.0600      0.7283      1.2615
    18         C          0.5150      0.7283      1.2615
    19         C          4.1200      3.6416      1.2615
    20         C          2.5750      3.6416      1.2615
    21         C          2.0600     -1.4566      0.0000
    22         C          0.5150     -1.4566      0.0000
    23         C          4.1200      1.4566      0.0000
    24         C          2.5750      1.4566      0.0000
    25         C          4.1200     -0.7283     -1.2615
    26         C          2.5750     -0.7283     -1.2615
    27         C          6.1800      2.1849     -1.2615
    28         C          4.6350      2.1849     -1.2615
    29         C          4.1200     -2.9133     -2.5230
    30         C          2.5750     -2.9133     -2.5230
    31         C          6.1800      0.0000     -2.5230
    32         C          4.6350      0.0000     -2.5230
    33         C          2.0600     -1.4566      2.5230
    34         C          0.5150     -1.4566      2.5230
    35         C          4.1200      1.4566      2.5230
    36         C          2.5750      1.4566      2.5230
    37         C          4.1200     -0.7283      1.2615
    38         C          2.5750     -0.7283      1.2615
    39         C          6.1800      2.1849      1.2615
    40         C          4.6350      2.1849      1.2615
    41         C          4.1200     -2.9133      0.0000
    42         C          2.5750     -2.9133      0.0000
    43         C          6.1800      0.0000      0.0000
    44         C          4.6350      0.0000      0.0000
    45         C          6.1800     -2.1849     -1.2615
    46         C          4.6350     -2.1849     -1.2615
    47         C          8.2399      0.7283     -1.2615
    48         C          6.6950      0.7283     -1.2615
    49         C          4.1200     -0.7283      3.7844
    50         C          2.5750     -0.7283      3.7844
    51         C          6.1800      2.1849      3.7844
    52         C          4.6350      2.1849      3.7844
    53         C          4.1200     -2.9133      2.5230
    54         C          2.5750     -2.9133      2.5230
    55         C          6.1800      0.0000      2.5230
    56         C          4.6350      0.0000      2.5230
    57         C          6.1800     -2.1849      1.2615
    58         C          4.6350     -2.1849      1.2615
    59         C          8.2399      0.7283      1.2615
    60         C          6.6950      0.7283      1.2615
    61         C          6.1800     -4.3699      0.0000
    62         C          4.6350     -4.3699      0.0000
    63         C          8.2399     -1.4566      0.0000
    64         C          6.6950     -1.4566      0.0000

 General Reference for PM7:
 "Optimization of Parameters for Semiempirical Methods VI: More Modifications to the 
 NDDO Approximations and Re-optimization of Parameters", J. J. P. Stewart, J. Mol. Mod., 1:32, 19 (2013)
 https://link.springer.com/article/10.1007/s00894-012-1667-x

                   THE SYSTEM IS A SOLID


                UNIT CELL TRANSLATION VECTORS

              X                Y              Z
    T1 =     4.1199715      5.8265196      0.0000000
    T2 =     4.1199715     -2.9132598     -5.0459140
    T3 =     4.1199715     -2.9132598      5.0459140

           Empirical Formula: C64  =    64 atoms



      RHF CALCULATION, NO. OF DOUBLY OCCUPIED LEVELS = 128



          HEAT OF FORMATION =     182.486709 KCALS/MOLE


          CARTESIAN COORDINATE DERIVATIVES

   NUMBER  ATOM         X            Y            Z

     1       C     -0.005304    -0.001749     0.001623
     2       C      0.008678     0.004924    -0.002444
     3       C     -0.007650    -0.003831     0.001443
     4       C      0.002996    -0.003090    -0.002440
     5       C     -0.006150     0.011420     0.001987
     6       C      0.009979     0.007966    -0.004310
     7       C     -0.007729     0.000441     0.000056
     8       C      0.010036     0.006578    -0.005716
     9       C     -0.012482     0.003499     0.000470
    10       C      0.006587    -0.000274     0.000226
    11       C     -0.006694     0.007357     0.000537
    12       C      0.013596    -0.003634    -0.002289
    13       C     -0.006723    -0.001666     0.002544
    14       C      0.011001    -0.008281     0.000580
    15       C     -0.012363    -0.008723     0.005130
    16       C      0.002069    -0.006779    -0.000740
    17       C     -0.005912     0.011481    -0.002988
    18       C      0.009739     0.007907     0.003308
    19       C     -0.007488     0.000501    -0.001050
    20       C      0.009803     0.006521     0.004719
    21       C     -0.008150     0.001327    -0.002437
    22       C      0.009454    -0.005095     0.001441
    23       C     -0.007189     0.007516    -0.002440
    24       C      0.013717    -0.004537     0.001441
    25       C     -0.007994     0.000083    -0.002556
    26       C      0.010249    -0.009697     0.003351
    27       C     -0.009511    -0.009447    -0.004383
    28       C      0.007207    -0.002768     0.001651
    29       C     -0.007458    -0.005446     0.001179
    30       C      0.008905     0.000105     0.006273
    31       C     -0.008307    -0.004856     0.001823
    32       C      0.003444     0.004603     0.003499
    33       C     -0.011714     0.003056    -0.000475
    34       C      0.006879    -0.000836    -0.000228
    35       C     -0.005925     0.006916    -0.000534
    36       C      0.013887    -0.004200     0.002288
    37       C     -0.007467    -0.000424    -0.001328
    38       C      0.010781    -0.010207     0.000528
    39       C     -0.008980    -0.009949     0.000499
    40       C      0.007732    -0.003271     0.002231
    41       C     -0.003436    -0.004904    -0.001446
    42       C      0.009931    -0.000545     0.002443
    43       C     -0.008299    -0.013383    -0.001440
    44       C      0.004270     0.005907     0.002441
    45       C     -0.007022     0.008722    -0.007683
    46       C      0.008542     0.008815     0.000863
    47       C     -0.010789     0.003033    -0.003487
    48       C      0.003640     0.009544     0.005971
    49       C     -0.006194    -0.002173     0.001341
    50       C      0.011530    -0.008789    -0.004461
    51       C     -0.011831    -0.009226    -0.001245
    52       C      0.002600    -0.007289    -0.003140
    53       C     -0.007168    -0.006009    -0.001179
    54       C      0.009668    -0.000343    -0.006273
    55       C     -0.008013    -0.005418    -0.001818
    56       C      0.004206     0.004156    -0.003498
    57       C     -0.007261     0.008659     0.008680
    58       C      0.008777     0.008874     0.000142
    59       C     -0.011023     0.002976     0.004488
    60       C      0.003878     0.009597    -0.004971
    61       C     -0.010022     0.000923     0.002439
    62       C      0.005374    -0.007046    -0.001437
    63       C     -0.007040     0.009453     0.002442
    64       C      0.010328     0.001219    -0.001447
    65      Tv      0.000000
    66      Tv      0.000000
    67      Tv      0.000000
 


          GRADIENT NORM =   0.08931


          TIME FOR SCF CALCULATION =    1.12

          TIME FOR DERIVATIVES     =    4.17

          MOLECULAR WEIGHT =  768.70



          ROTATIONAL CONSTANTS IN CM(-1)

          A =    0.00275618   B =    0.00256389   C =    0.00256389



           PRINCIPAL MOMENTS OF INERTIA IN UNITS OF 10**(-40)*GRAM-CM**2

          A =    10156.3635   B =    10918.0804   C =    10918.0804


          ORIENTATION OF MOLECULE IN FORCE CALCULATION

    NO.       ATOM         X         Y         Z

     1          C      -3.8625   -0.0000   -0.0000
     2          C      -5.4075   -0.0000   -0.0000
     3          C      -1.8025    2.9133   -0.0000
     4          C      -3.3475    2.9133   -0.0000
     5          C      -1.8025    0.7283   -1.2615
     6          C      -3.3475    0.7283   -1.2615
     7          C       0.2575    3.6416   -1.2615
     8          C      -1.2875    3.6416   -1.2615
     9          C      -1.8025   -1.4566   -2.5230
    10          C      -3.3475   -1.4566   -2.5230
    11          C       0.2575    1.4566   -2.5230
    12          C      -1.2875    1.4566   -2.5230
    13          C       0.2575   -0.7283   -3.7844
    14          C      -1.2875   -0.7283   -3.7844
    15          C       2.3175    2.1849   -3.7844
    16          C       0.7725    2.1849   -3.7844
    17          C      -1.8025    0.7283    1.2615
    18          C      -3.3475    0.7283    1.2615
    19          C       0.2575    3.6416    1.2615
    20          C      -1.2875    3.6416    1.2615
    21          C      -1.8025   -1.4566   -0.0000
    22          C      -3.3475   -1.4566   -0.0000
    23          C       0.2575    1.4566   -0.0000
    24          C      -1.2875    1.4566   -0.0000
    25          C       0.2575   -0.7283   -1.2615
    26          C      -1.2875   -0.7283   -1.2615
    27          C       2.3175    2.1849   -1.2615
    28          C       0.7725    2.1849   -1.2615
    29          C       0.2575   -2.9133   -2.5230
    30          C      -1.2875   -2.9133   -2.5230
    31          C       2.3175   -0.0000   -2.5230
    32          C       0.7725   -0.0000   -2.5230
    33          C      -1.8025   -1.4566    2.5230
    34          C      -3.3475   -1.4566    2.5230
    35          C       0.2575    1.4566    2.5230
    36          C      -1.2875    1.4566    2.5230
    37          C       0.2575   -0.7283    1.2615
    38          C      -1.2875   -0.7283    1.2615
    39          C       2.3175    2.1849    1.2615
    40          C       0.7725    2.1849    1.2615
    41          C       0.2575   -2.9133   -0.0000
    42          C      -1.2875   -2.9133   -0.0000
    43          C       2.3175   -0.0000   -0.0000
    44          C       0.7725   -0.0000   -0.0000
    45          C       2.3175   -2.1849   -1.2615
    46          C       0.7725   -2.1849   -1.2615
    47          C       4.3775    0.7283   -1.2615
    48          C       2.8325    0.7283   -1.2615
    49          C       0.2575   -0.7283    3.7844
    50          C      -1.2875   -0.7283    3.7844
    51          C       2.3175    2.1849    3.7844
    52          C       0.7725    2.1849    3.7844
    53          C       0.2575   -2.9133    2.5230
    54          C      -1.2875   -2.9133    2.5230
    55          C       2.3175   -0.0000    2.5230
    56          C       0.7725   -0.0000    2.5230
    57          C       2.3175   -2.1849    1.2615
    58          C       0.7725   -2.1849    1.2615
    59          C       4.3775    0.7283    1.2615
    60          C       2.8325    0.7283    1.2615
    61          C       2.3175   -4.3699   -0.0000
    62          C       0.7725   -4.3699   -0.0000
    63          C       4.3775   -1.4566   -0.0000
    64          C       2.8325   -1.4566   -0.0000
    65         Tv       4.1200    5.8265    0.0000
    66         Tv       4.1200   -2.9133   -5.0459
    67         Tv       4.1200   -2.9133    5.0459


    FIRST DERIVATIVES WILL BE USED IN THE CALCULATION OF SECOND DERIVATIVES

          ESTIMATED TIME TO COMPLETE CALCULATION =     2031.00 SECONDS

    FOR POINT-GROUP C3v  THERE ARE   6 UNIQUE SYMMETRY FUNCTIONS.

 STEP:   1 TIME =     8.62 SECS, INTEGRAL =      8.62 TIME LEFT: 172786.09
 STEP:   2 TIME =     8.73 SECS, INTEGRAL =     17.34 TIME LEFT: 172777.37
 STEP:   3 TIME =     8.58 SECS, INTEGRAL =     25.93 TIME LEFT: 172768.79
 STEP:   4 TIME =     8.60 SECS, INTEGRAL =     34.53 TIME LEFT: 172760.18
 STEP:   5 TIME =     8.63 SECS, INTEGRAL =     43.16 TIME LEFT: 172751.55
 STEP:   6 TIME =     8.50 SECS, INTEGRAL =     51.66 TIME LEFT: 172743.05
 STEP:   7 TIME =     8.39 SECS, INTEGRAL =     60.05 TIME LEFT: 172734.66
 STEP:   8 TIME =     8.41 SECS, INTEGRAL =     68.45 TIME LEFT: 172726.26
 STEP:   9 TIME =     8.41 SECS, INTEGRAL =     76.86 TIME LEFT: 172717.85
 STEP:  10 TIME =     8.38 SECS, INTEGRAL =     85.24 TIME LEFT: 172709.47
 STEP:  11 TIME =     8.50 SECS, INTEGRAL =     93.73 TIME LEFT: 172700.98
 STEP:  12 TIME =     8.56 SECS, INTEGRAL =    102.30 TIME LEFT: 172692.41
 STEP:  13 TIME =     8.43 SECS, INTEGRAL =    110.72 TIME LEFT: 172683.99
 STEP:  14 TIME =     8.48 SECS, INTEGRAL =    119.20 TIME LEFT: 172675.51
 STEP:  15 TIME =     8.46 SECS, INTEGRAL =    127.66 TIME LEFT: 172667.05
 STEP:  16 TIME =     8.35 SECS, INTEGRAL =    136.01 TIME LEFT: 172658.70
 STEP:  17 TIME =     8.36 SECS, INTEGRAL =    144.37 TIME LEFT: 172650.34
 STEP:  18 TIME =     8.51 SECS, INTEGRAL =    152.88 TIME LEFT: 172641.83
 STEP:  19 TIME =     8.45 SECS, INTEGRAL =    161.33 TIME LEFT: 172633.38
 STEP:  20 TIME =     8.45 SECS, INTEGRAL =    169.79 TIME LEFT: 172624.93
 STEP:  21 TIME =     8.46 SECS, INTEGRAL =    178.25 TIME LEFT: 172616.46
 STEP:  22 TIME =     8.41 SECS, INTEGRAL =    186.66 TIME LEFT: 172608.05
 STEP:  23 TIME =     8.62 SECS, INTEGRAL =    195.28 TIME LEFT: 172599.43
 STEP:  24 TIME =     8.36 SECS, INTEGRAL =    203.63 TIME LEFT: 172591.08
 STEP:  25                       INTEGRAL =    203.63 TIME LEFT: 172591.08
 STEP:  26                       INTEGRAL =    203.63 TIME LEFT: 172591.08
 STEP:  27                       INTEGRAL =    203.63 TIME LEFT: 172591.08
 STEP:  28                       INTEGRAL =    203.63 TIME LEFT: 172591.08
 STEP:  29                       INTEGRAL =    203.63 TIME LEFT: 172591.08
 STEP:  30                       INTEGRAL =    203.63 TIME LEFT: 172591.08
 STEP:  31 TIME =     8.37 SECS, INTEGRAL =    212.00 TIME LEFT: 172582.71
 STEP:  32 TIME =     8.38 SECS, INTEGRAL =    220.39 TIME LEFT: 172574.32
 STEP:  33 TIME =     8.39 SECS, INTEGRAL =    228.78 TIME LEFT: 172565.93
 STEP:  34 TIME =     8.38 SECS, INTEGRAL =    237.16 TIME LEFT: 172557.55
 STEP:  35 TIME =     8.36 SECS, INTEGRAL =    245.52 TIME LEFT: 172549.19
 STEP:  36 TIME =     8.43 SECS, INTEGRAL =    253.95 TIME LEFT: 172540.76
 STEP:  37                       INTEGRAL =    253.95 TIME LEFT: 172540.76
 STEP:  38                       INTEGRAL =    253.95 TIME LEFT: 172540.76
 STEP:  39                       INTEGRAL =    253.95 TIME LEFT: 172540.76
 STEP:  40                       INTEGRAL =    253.95 TIME LEFT: 172540.76
 STEP:  41                       INTEGRAL =    253.95 TIME LEFT: 172540.76
 STEP:  42                       INTEGRAL =    253.95 TIME LEFT: 172540.76
 STEP:  43 TIME =     8.57 SECS, INTEGRAL =    262.52 TIME LEFT: 172532.19
 STEP:  44 TIME =     8.50 SECS, INTEGRAL =    271.02 TIME LEFT: 172523.69
 STEP:  45 TIME =     9.28 SECS, INTEGRAL =    280.30 TIME LEFT: 172514.41
 STEP:  46 TIME =     8.80 SECS, INTEGRAL =    289.10 TIME LEFT: 172505.61
 STEP:  47 TIME =     8.50 SECS, INTEGRAL =    297.59 TIME LEFT: 172497.12
 STEP:  48 TIME =     8.75 SECS, INTEGRAL =    306.34 TIME LEFT: 172488.37
 STEP:  49                       INTEGRAL =    306.34 TIME LEFT: 172488.37
 STEP:  50                       INTEGRAL =    306.34 TIME LEFT: 172488.37
 STEP:  51                       INTEGRAL =    306.34 TIME LEFT: 172488.37
 STEP:  52                       INTEGRAL =    306.34 TIME LEFT: 172488.37
 STEP:  53                       INTEGRAL =    306.34 TIME LEFT: 172488.37
 STEP:  54                       INTEGRAL =    306.34 TIME LEFT: 172488.37
 STEP:  55                       INTEGRAL =    306.34 TIME LEFT: 172488.37
 STEP:  56                       INTEGRAL =    306.34 TIME LEFT: 172488.37
 STEP:  57                       INTEGRAL =    306.34 TIME LEFT: 172488.37
 STEP:  58                       INTEGRAL =    306.34 TIME LEFT: 172488.37
 STEP:  59                       INTEGRAL =    306.34 TIME LEFT: 172488.37
 STEP:  60                       INTEGRAL =    306.34 TIME LEFT: 172488.37
 STEP:  61                       INTEGRAL =    306.34 TIME LEFT: 172488.37
 STEP:  62                       INTEGRAL =    306.34 TIME LEFT: 172488.37
 STEP:  63                       INTEGRAL =    306.34 TIME LEFT: 172488.37
 STEP:  64                       INTEGRAL =    306.34 TIME LEFT: 172488.37
 STEP:  65                       INTEGRAL =    306.34 TIME LEFT: 172488.37
 STEP:  66                       INTEGRAL =    306.34 TIME LEFT: 172488.37
 STEP:  67 TIME =     8.77 SECS, INTEGRAL =    315.12 TIME LEFT: 172479.59
 STEP:  68 TIME =     8.57 SECS, INTEGRAL =    323.69 TIME LEFT: 172471.02
 STEP:  69 TIME =     8.45 SECS, INTEGRAL =    332.13 TIME LEFT: 172462.58
 STEP:  70 TIME =     8.41 SECS, INTEGRAL =    340.55 TIME LEFT: 172454.16
 STEP:  71 TIME =     8.50 SECS, INTEGRAL =    349.05 TIME LEFT: 172445.66
 STEP:  72 TIME =     8.41 SECS, INTEGRAL =    357.46 TIME LEFT: 172437.25
 STEP:  73                       INTEGRAL =    357.46 TIME LEFT: 172437.25
 STEP:  74                       INTEGRAL =    357.46 TIME LEFT: 172437.25
 STEP:  75                       INTEGRAL =    357.46 TIME LEFT: 172437.25
 STEP:  76                       INTEGRAL =    357.46 TIME LEFT: 172437.25
 STEP:  77                       INTEGRAL =    357.46 TIME LEFT: 172437.25
 STEP:  78                       INTEGRAL =    357.46 TIME LEFT: 172437.25
 STEP:  79 TIME =     8.52 SECS, INTEGRAL =    365.99 TIME LEFT: 172428.72
 STEP:  80 TIME =     8.46 SECS, INTEGRAL =    374.45 TIME LEFT: 172420.27
 STEP:  81 TIME =     8.43 SECS, INTEGRAL =    382.88 TIME LEFT: 172411.84
 STEP:  82 TIME =     8.56 SECS, INTEGRAL =    391.44 TIME LEFT: 172403.27
 STEP:  83 TIME =     8.39 SECS, INTEGRAL =    399.82 TIME LEFT: 172394.89
 STEP:  84 TIME =     8.41 SECS, INTEGRAL =    408.24 TIME LEFT: 172386.47
 STEP:  85                       INTEGRAL =    408.24 TIME LEFT: 172386.47
 STEP:  86                       INTEGRAL =    408.24 TIME LEFT: 172386.47
 STEP:  87                       INTEGRAL =    408.24 TIME LEFT: 172386.47
 STEP:  88                       INTEGRAL =    408.24 TIME LEFT: 172386.47
 STEP:  89                       INTEGRAL =    408.24 TIME LEFT: 172386.47
 STEP:  90                       INTEGRAL =    408.24 TIME LEFT: 172386.47
 STEP:  91                       INTEGRAL =    408.24 TIME LEFT: 172386.47
 STEP:  92                       INTEGRAL =    408.24 TIME LEFT: 172386.47
 STEP:  93                       INTEGRAL =    408.24 TIME LEFT: 172386.47
 STEP:  94                       INTEGRAL =    408.24 TIME LEFT: 172386.47
 STEP:  95                       INTEGRAL =    408.24 TIME LEFT: 172386.47
 STEP:  96                       INTEGRAL =    408.24 TIME LEFT: 172386.47
 STEP:  97                       INTEGRAL =    408.24 TIME LEFT: 172386.47
 STEP:  98                       INTEGRAL =    408.24 TIME LEFT: 172386.47
 STEP:  99                       INTEGRAL =    408.24 TIME LEFT: 172386.47
 STEP: 100                       INTEGRAL =    408.24 TIME LEFT: 172386.47
 STEP: 101                       INTEGRAL =    408.24 TIME LEFT: 172386.47
 STEP: 102                       INTEGRAL =    408.24 TIME LEFT: 172386.47
 STEP: 103                       INTEGRAL =    408.24 TIME LEFT: 172386.47
 STEP: 104                       INTEGRAL =    408.24 TIME LEFT: 172386.47
 STEP: 105                       INTEGRAL =    408.24 TIME LEFT: 172386.47
 STEP: 106                       INTEGRAL =    408.24 TIME LEFT: 172386.47
 STEP: 107                       INTEGRAL =    408.24 TIME LEFT: 172386.47
 STEP: 108                       INTEGRAL =    408.24 TIME LEFT: 172386.47
 STEP: 109                       INTEGRAL =    408.24 TIME LEFT: 172386.47
 STEP: 110                       INTEGRAL =    408.24 TIME LEFT: 172386.47
 STEP: 111                       INTEGRAL =    408.24 TIME LEFT: 172386.47
 STEP: 112                       INTEGRAL =    408.24 TIME LEFT: 172386.47
 STEP: 113                       INTEGRAL =    408.24 TIME LEFT: 172386.47
 STEP: 114                       INTEGRAL =    408.24 TIME LEFT: 172386.47
 STEP: 115                       INTEGRAL =    408.24 TIME LEFT: 172386.47
 STEP: 116                       INTEGRAL =    408.24 TIME LEFT: 172386.47
 STEP: 117                       INTEGRAL =    408.24 TIME LEFT: 172386.47
 STEP: 118                       INTEGRAL =    408.24 TIME LEFT: 172386.47
 STEP: 119                       INTEGRAL =    408.24 TIME LEFT: 172386.47
 STEP: 120                       INTEGRAL =    408.24 TIME LEFT: 172386.47
 STEP: 121                       INTEGRAL =    408.24 TIME LEFT: 172386.47
 STEP: 122                       INTEGRAL =    408.24 TIME LEFT: 172386.47
 STEP: 123                       INTEGRAL =    408.24 TIME LEFT: 172386.47
 STEP: 124                       INTEGRAL =    408.24 TIME LEFT: 172386.47
 STEP: 125                       INTEGRAL =    408.24 TIME LEFT: 172386.47
 STEP: 126                       INTEGRAL =    408.24 TIME LEFT: 172386.47
 STEP: 127 TIME =     8.37 SECS, INTEGRAL =    416.61 TIME LEFT: 172378.11
 STEP: 128 TIME =     8.39 SECS, INTEGRAL =    425.00 TIME LEFT: 172369.71
 STEP: 129 TIME =     8.40 SECS, INTEGRAL =    433.40 TIME LEFT: 172361.31
 STEP: 130 TIME =     8.36 SECS, INTEGRAL =    441.75 TIME LEFT: 172352.96
 STEP: 131 TIME =     8.42 SECS, INTEGRAL =    450.17 TIME LEFT: 172344.54
 STEP: 132 TIME =     8.38 SECS, INTEGRAL =    458.55 TIME LEFT: 172336.16
 STEP: 133                       INTEGRAL =    458.55 TIME LEFT: 172336.16
 STEP: 134                       INTEGRAL =    458.55 TIME LEFT: 172336.16
 STEP: 135                       INTEGRAL =    458.55 TIME LEFT: 172336.16
 STEP: 136                       INTEGRAL =    458.55 TIME LEFT: 172336.16
 STEP: 137                       INTEGRAL =    458.55 TIME LEFT: 172336.16
 STEP: 138                       INTEGRAL =    458.55 TIME LEFT: 172336.16
 STEP: 139 TIME =     8.38 SECS, INTEGRAL =    466.93 TIME LEFT: 172327.78
 STEP: 140 TIME =     8.38 SECS, INTEGRAL =    475.31 TIME LEFT: 172319.40
 STEP: 141 TIME =     8.44 SECS, INTEGRAL =    483.75 TIME LEFT: 172310.96
 STEP: 142 TIME =     8.39 SECS, INTEGRAL =    492.14 TIME LEFT: 172302.57
 STEP: 143 TIME =     8.38 SECS, INTEGRAL =    500.52 TIME LEFT: 172294.19
 STEP: 144 TIME =     8.45 SECS, INTEGRAL =    508.97 TIME LEFT: 172285.74
 STEP: 145                       INTEGRAL =    508.97 TIME LEFT: 172285.74
 STEP: 146                       INTEGRAL =    508.97 TIME LEFT: 172285.74
 STEP: 147                       INTEGRAL =    508.97 TIME LEFT: 172285.74
 STEP: 148                       INTEGRAL =    508.97 TIME LEFT: 172285.74
 STEP: 149                       INTEGRAL =    508.97 TIME LEFT: 172285.74
 STEP: 150                       INTEGRAL =    508.97 TIME LEFT: 172285.74
 STEP: 151                       INTEGRAL =    508.97 TIME LEFT: 172285.74
 STEP: 152                       INTEGRAL =    508.97 TIME LEFT: 172285.74
 STEP: 153                       INTEGRAL =    508.97 TIME LEFT: 172285.74
 STEP: 154                       INTEGRAL =    508.97 TIME LEFT: 172285.74
 STEP: 155                       INTEGRAL =    508.97 TIME LEFT: 172285.74
 STEP: 156                       INTEGRAL =    508.97 TIME LEFT: 172285.74
 STEP: 157                       INTEGRAL =    508.97 TIME LEFT: 172285.74
 STEP: 158                       INTEGRAL =    508.97 TIME LEFT: 172285.74
 STEP: 159                       INTEGRAL =    508.97 TIME LEFT: 172285.74
 STEP: 160                       INTEGRAL =    508.97 TIME LEFT: 172285.74
 STEP: 161                       INTEGRAL =    508.97 TIME LEFT: 172285.74
 STEP: 162                       INTEGRAL =    508.97 TIME LEFT: 172285.74
 STEP: 163                       INTEGRAL =    508.97 TIME LEFT: 172285.74
 STEP: 164                       INTEGRAL =    508.97 TIME LEFT: 172285.74
 STEP: 165                       INTEGRAL =    508.97 TIME LEFT: 172285.74
 STEP: 166                       INTEGRAL =    508.97 TIME LEFT: 172285.74
 STEP: 167                       INTEGRAL =    508.97 TIME LEFT: 172285.74
 STEP: 168                       INTEGRAL =    508.97 TIME LEFT: 172285.74
 STEP: 169                       INTEGRAL =    508.97 TIME LEFT: 172285.74
 STEP: 170                       INTEGRAL =    508.97 TIME LEFT: 172285.74
 STEP: 171                       INTEGRAL =    508.97 TIME LEFT: 172285.74
 STEP: 172                       INTEGRAL =    508.97 TIME LEFT: 172285.74
 STEP: 173                       INTEGRAL =    508.97 TIME LEFT: 172285.74
 STEP: 174                       INTEGRAL =    508.97 TIME LEFT: 172285.74
 STEP: 175                       INTEGRAL =    508.97 TIME LEFT: 172285.74
 STEP: 176                       INTEGRAL =    508.97 TIME LEFT: 172285.74
 STEP: 177                       INTEGRAL =    508.97 TIME LEFT: 172285.74
 STEP: 178                       INTEGRAL =    508.97 TIME LEFT: 172285.74
 STEP: 179                       INTEGRAL =    508.97 TIME LEFT: 172285.74
 STEP: 180                       INTEGRAL =    508.97 TIME LEFT: 172285.74
 STEP: 181                       INTEGRAL =    508.97 TIME LEFT: 172285.74
 STEP: 182                       INTEGRAL =    508.97 TIME LEFT: 172285.74
 STEP: 183                       INTEGRAL =    508.97 TIME LEFT: 172285.74
 STEP: 184                       INTEGRAL =    508.97 TIME LEFT: 172285.74
 STEP: 185                       INTEGRAL =    508.97 TIME LEFT: 172285.74
 STEP: 186                       INTEGRAL =    508.97 TIME LEFT: 172285.74
 STEP: 187                       INTEGRAL =    508.97 TIME LEFT: 172285.74
 STEP: 188                       INTEGRAL =    508.97 TIME LEFT: 172285.74
 STEP: 189                       INTEGRAL =    508.97 TIME LEFT: 172285.74
 STEP: 190                       INTEGRAL =    508.97 TIME LEFT: 172285.74
 STEP: 191                       INTEGRAL =    508.97 TIME LEFT: 172285.74
 STEP: 192                       INTEGRAL =    508.97 TIME LEFT: 172285.74

(To convert to Hartree/Bohr^2, multiply by (10^(-21) x N x a0^2)/(4.184 x 627.51) =  0.0642)


           FORCE MATRIX IN MILLIDYNES/ANGSTROM


                  C  1       C  2       C  3       C  4       C  5       C  6
 ------------------------------------------------------------------------------
     C    1  12.648973
     C    2   2.597226  12.654334
     C    3   0.016297   0.055239  12.648632
     C    4   0.054664   0.016144   2.600986  12.687627
     C    5   0.631377   0.038875   0.631196   0.059108  12.678195
     C    6   2.599036   0.630692   0.054688   0.629899   2.604211  12.698843
     C    7   0.631996   0.053597   0.631895   0.039137   0.016189   0.054769
     C    8   0.054411   0.631364   2.594608   0.631435   0.054323   0.016139
     C    9   0.016135   0.055150   0.021227   0.036999   0.630277   0.054789
     C   10   0.054366   0.016129   0.037245   0.020795   0.054805   0.629457
     C   11   0.021440   0.038339   0.016147   0.054521   0.631022   0.038667
     C   12   0.038135   0.021885   0.053585   0.016023   2.596807   0.630382
     C   13   0.632349   0.054794   0.632037   2.600639   0.015401   0.054163
     C   14   0.053368   0.630319   0.039478   0.630646   0.054087   0.015885
     C   15   0.631984   2.594083   0.632442   0.054703   0.021568   0.037342
     C   16   0.038358   0.630101   0.053696   0.630758   0.037771   0.020794
     C   17   0.632555   0.038047   0.632002   0.054230   0.630511   0.053908
     C   18   2.595802   0.630303   0.054110   0.629875   0.053992   0.630097
     C   19   0.631219   0.052756   0.630874   0.038310   0.009620   0.036224
     C   20   0.054411   0.633122   2.594425   0.630278   0.036642   0.008763
     C   21   0.633304   0.037418   0.009322   0.002699   0.630209   0.053943
     C   22   2.597696   0.632805   0.054645   0.009311   0.054949   0.629581
     C   23   0.009390   0.002532   0.631565   0.035879   0.630115   0.038104
     C   24   0.053657   0.009534   2.597529   0.631822   2.597214   0.632044
     C   25   0.009608   0.002760   0.009483   0.037001   0.631585   0.035453
     C   26   0.053497   0.009508   0.037250   0.009284   2.603558   0.629967
     C   27   0.009542   0.037392   0.009489   0.002718   0.009283   0.002712
     C   28   0.036742   0.009449   0.054149   0.009397   0.054521   0.009283
     C   29   0.630754   0.055088   0.009445   0.036408   0.008974   0.037091
     C   30   0.054647   0.629330   0.038010   0.009066   0.036322   0.008634
     C   31   0.009607   0.038268   0.632190   0.054426   0.009626   0.002726
     C   32   0.038261   0.009589   0.053858   0.630019   0.054538   0.009231
     C   33   0.016131   0.053765   0.022130   0.037014   0.009294   0.055023
     C   34   0.054363   0.016114   0.037299   0.020785   0.002979   0.009145
     C   35   0.021524   0.038363   0.016131   0.054282   0.008741   0.036060
     C   36   0.038408   0.021282   0.053741   0.016098   0.037333   0.009432
     C   37   0.009606   0.002770   0.009644   0.037003   0.015983   0.054163
     C   38   0.053501   0.009584   0.037178   0.009265   0.054269   0.016317
     C   39   0.009522   0.038622   0.009783   0.002679   0.020893   0.035399
     C   40   0.036508   0.009727   0.054480   0.009247   0.037428   0.020262
     C   41   0.022408   0.038277   0.002224   0.002689   0.009266   0.037023
     C   42   0.038301   0.022223   0.002789   0.002018   0.036292   0.009684


                  C  1       C  2       C  3       C  4       C  5       C  6
 ------------------------------------------------------------------------------
     C   43   0.002165   0.002716   0.022194   0.036898   0.009521   0.002737
     C   44   0.002831   0.002235   0.037725   0.021514   0.053677   0.009426
     C   45   0.009619   0.036567   0.009690   0.053928   0.020954   0.035774
     C   46   0.037987   0.009544   0.002619   0.009254   0.037202   0.020507
     C   47   0.009649   0.053225   0.009654   0.036586   0.002334   0.002729
     C   48   0.002782   0.009643   0.038341   0.009553   0.002810   0.002093
     C   49   0.632325   0.054413   0.631615   2.600671   0.631033   2.607230
     C   50   0.053396   0.631488   0.040030   0.630659   0.035798   0.629579
     C   51   0.631230   2.598882   0.632961   0.055313   0.009712   0.055530
     C   52   0.038796   0.632381   0.053488   0.629865   0.003062   0.008857
     C   53   0.630672   0.054278   0.009745   0.036410   0.630270   2.601251
     C   54   0.054655   0.631215   0.038424   0.009063   0.038501   0.628674
     C   55   0.009606   0.038358   0.631842   0.054417   0.630543   0.055161
     C   56   0.038264   0.009579   0.054123   0.630039   0.053912   0.629815
     C   57   0.009622   0.036136   0.009881   0.053926   0.630441   0.055005
     C   58   0.038051   0.009428   0.002921   0.009251   0.054572   0.630090
     C   59   0.009574   0.053639   0.009558   0.036031   0.009158   0.036213
     C   60   0.002781   0.009561   0.038497   0.009223   0.036717   0.009119
     C   61   0.632933   2.598312   0.010756   0.055034   0.009495   0.054714
     C   62   0.037482   0.633287   0.002865   0.008895   0.002652   0.009128
     C   63   0.009754   0.053697   0.632737   2.605250   0.011971   0.036060
     C   64   0.002824   0.009251   0.037654   0.631334   0.037532   0.008690


                  C  7       C  8       C  9       C 10       C 11       C 12
 ------------------------------------------------------------------------------
     C    7  12.631046
     C    8   2.595805  12.647004
     C    9   0.632700   0.039510  12.648632
     C   10   2.592559   0.632022   2.600986  12.687627
     C   11   0.631892   0.053972   0.016140   0.054368  12.657630
     C   12   0.054094   0.632089   0.053927   0.016144   2.597940  12.645002
     C   13   0.022268   0.038384   0.630874   0.038310   0.630393   0.053799
     C   14   0.038440   0.021907   2.594425   0.630278   0.054835   0.632358
     C   15   0.016139   0.054183   0.632865   0.054273   0.632631   0.039695
     C   16   0.054278   0.015970   0.053970   0.629897   2.598745   0.631081
[...]
 EFFECTIVE MASS     12.0110
 FORCE CONSTANT      0.2378

 VIBRATION        143   48E           ATOM PAIR      ENERGY CONTRIBUTION    RADIAL
 FREQUENCY          1200.13         C 43 -- C 60          +3.6% ( 29.3%)     87.8%
 TRANSITION DIPOLE   0.0495         C 43 -- C 64          +3.4% ( 28.4%)     83.6%
 TRAVEL (Ang.)       0.4408         C  1 -- C 18          +3.2% ( 27.4%)     86.9%
 REDUCED MASS        0.2892         C  1 -- C 22          +3.0% ( 26.6%)     82.8%
 EFFECTIVE MASS     12.0110
 FORCE CONSTANT      0.2454

 VIBRATION        144   27A1          ATOM PAIR      ENERGY CONTRIBUTION    RADIAL
 FREQUENCY          1200.17         C  1 -- C  2          +3.9% ( 30.2%)    100.0%
 TRANSITION DIPOLE   0.0420         C 43 -- C 64          +3.3% ( 27.5%)     12.8%
 TRAVEL (Ang.)       0.4520         C 43 -- C 60          +3.3% ( 27.5%)     12.8%
 REDUCED MASS        0.2750         C 43 -- C 48          +3.3% ( 27.5%)     12.8%
 EFFECTIVE MASS     12.0110
 FORCE CONSTANT      0.2334

 VIBRATION        146   49E           ATOM PAIR      ENERGY CONTRIBUTION    RADIAL
 FREQUENCY          1200.31         C 53 -- C 54          +2.9% ( 25.1%)     97.8%
 TRANSITION DIPOLE   0.0573         C 31 -- C 32          +2.8% ( 24.5%)     95.8%
 TRAVEL (Ang.)       0.4463         C 29 -- C 30          +2.6% ( 23.8%)     96.5%
 REDUCED MASS        0.2821         C 55 -- C 56          +2.3% ( 22.3%)     96.2%
 EFFECTIVE MASS     12.0110
 FORCE CONSTANT      0.2394

 VIBRATION        147   28A1          ATOM PAIR      ENERGY CONTRIBUTION    RADIAL
 FREQUENCY          1200.32         C 23 -- C 24          +3.0% ( 25.5%)     98.4%
 TRANSITION DIPOLE   0.0117         C 25 -- C 26          +3.0% ( 25.5%)     98.4%
 TRAVEL (Ang.)       0.4540         C 37 -- C 38          +3.0% ( 25.5%)     98.4%
 REDUCED MASS        0.2726         C 61 -- C 62          +2.8% ( 24.5%)     98.0%
 EFFECTIVE MASS     12.0110
 FORCE CONSTANT      0.2314

 VIBRATION        148   22A2          ATOM PAIR      ENERGY CONTRIBUTION    RADIAL
 FREQUENCY          1200.43         C  9 -- C 14          +2.6% ( 24.8%)     71.7%
 TRANSITION DIPOLE   0.0000         C  3 -- C  8          +2.6% ( 24.8%)     71.7%
 TRAVEL (Ang.)       0.4479         C 33 -- C 50          +2.6% ( 24.8%)     71.7%
 REDUCED MASS        0.2800         C 33 -- C 54          +2.6% ( 24.8%)     71.7%
 EFFECTIVE MASS     12.0110
 FORCE CONSTANT      0.2377

 VIBRATION        150   50E           ATOM PAIR      ENERGY CONTRIBUTION    RADIAL
 FREQUENCY          1200.55         C  5 -- C 12          +4.0% ( 27.7%)     99.4%
 TRANSITION DIPOLE   0.0015         C 11 -- C 12          +2.8% ( 23.2%)     16.8%
 TRAVEL (Ang.)       0.4482         C 57 -- C 64          +2.8% ( 23.1%)     91.5%
 REDUCED MASS        0.2797         C 33 -- C 34          +2.7% ( 22.5%)      9.5%
 EFFECTIVE MASS     12.0110
 FORCE CONSTANT      0.2375

 VIBRATION        152   51E           ATOM PAIR      ENERGY CONTRIBUTION    RADIAL
 FREQUENCY          1200.70         C 41 -- C 42          +3.8% ( 29.1%)     94.7%
 TRANSITION DIPOLE   0.0534         C  3 -- C  4          +3.2% ( 26.8%)     93.0%
 TRAVEL (Ang.)       0.4332         C 35 -- C 36          +3.1% ( 26.4%)     88.3%
 REDUCED MASS        0.2992         C 41 -- C 62          +3.0% ( 25.9%)     60.4%
 EFFECTIVE MASS     12.0110
 FORCE CONSTANT      0.2542

 VIBRATION        154   52E           ATOM PAIR      ENERGY CONTRIBUTION    RADIAL
 FREQUENCY          1204.57         C 55 -- C 56          +3.3% ( 25.7%)      1.1%
 TRANSITION DIPOLE   0.0392         C 29 -- C 30          +3.2% ( 25.2%)      3.2%
 TRAVEL (Ang.)       0.4215         C 53 -- C 54          +3.0% ( 24.4%)      3.6%
 REDUCED MASS        0.3151         C 31 -- C 32          +2.9% ( 24.2%)      3.0%
 EFFECTIVE MASS     12.0110
 FORCE CONSTANT      0.2694

 VIBRATION        155   29A1          ATOM PAIR      ENERGY CONTRIBUTION    RADIAL
 FREQUENCY          1204.75         C 21 -- C 22          +2.4% ( 22.7%)      5.6%
 TRANSITION DIPOLE   0.0201         C 17 -- C 18          +2.4% ( 22.7%)      5.6%
 TRAVEL (Ang.)       0.4107         C  5 -- C  6          +2.4% ( 22.7%)      5.6%
 REDUCED MASS        0.3318         C 63 -- C 64          +2.3% ( 22.0%)      4.2%
 EFFECTIVE MASS     12.0110
 FORCE CONSTANT      0.2837

 VIBRATION        156   23A2          ATOM PAIR      ENERGY CONTRIBUTION    RADIAL
 FREQUENCY          1204.81         C 11 -- C 12          +3.3% ( 25.9%)      0.0%
 TRANSITION DIPOLE   0.0000         C 35 -- C 36          +3.3% ( 25.9%)      0.0%
 TRAVEL (Ang.)       0.4268         C 41 -- C 42          +3.3% ( 25.9%)      0.0%
 REDUCED MASS        0.3073         C 33 -- C 34          +2.8% ( 24.1%)      0.0%
 EFFECTIVE MASS     12.0110
 FORCE CONSTANT      0.2628

 VIBRATION        158   53E           ATOM PAIR      ENERGY CONTRIBUTION    RADIAL
 FREQUENCY          1204.92         C  1 -- C  2          +3.6% ( 27.5%)      0.0%
 TRANSITION DIPOLE   0.0123         C 43 -- C 44          +3.1% ( 25.5%)      0.0%
 TRAVEL (Ang.)       0.4252         C  1 -- C 22          +3.1% ( 25.5%)      8.4%
 REDUCED MASS        0.3096         C  1 -- C 18          +3.0% ( 25.0%)     24.5%
 EFFECTIVE MASS     12.0110
 FORCE CONSTANT      0.2648

 VIBRATION        160   54E           ATOM PAIR      ENERGY CONTRIBUTION    RADIAL
 FREQUENCY          1204.96         C 55 -- C 56          +2.4% ( 21.6%)     97.3%
 TRANSITION DIPOLE   0.0169         C 31 -- C 32          +2.4% ( 21.6%)     97.3%
 TRAVEL (Ang.)       0.4736         C 53 -- C 54          +2.3% ( 21.2%)     94.4%
 REDUCED MASS        0.2495         C 29 -- C 30          +2.3% ( 21.2%)     94.4%
 EFFECTIVE MASS     12.0110
 FORCE CONSTANT      0.2134

 VIBRATION        161   30A1          ATOM PAIR      ENERGY CONTRIBUTION    RADIAL
 FREQUENCY          1205.13         C 37 -- C 44          +3.7% ( 26.6%)      7.9%
 TRANSITION DIPOLE   0.0022         C 25 -- C 44          +3.7% ( 26.6%)      7.9%
 TRAVEL (Ang.)       0.4251         C 23 -- C 44          +3.7% ( 26.6%)      7.9%
 REDUCED MASS        0.3096         C 43 -- C 44          +3.1% ( 24.3%)    100.0%
 EFFECTIVE MASS     12.0110
 FORCE CONSTANT      0.2649

 VIBRATION        162   31A1          ATOM PAIR      ENERGY CONTRIBUTION    RADIAL
 FREQUENCY          1205.22         C  1 -- C 22          +2.5% ( 23.6%)     26.7%
 TRANSITION DIPOLE   0.0056         C  1 -- C 18          +2.5% ( 23.6%)     26.7%
 TRAVEL (Ang.)       0.4411         C  1 -- C  6          +2.5% ( 23.6%)     26.7%
 REDUCED MASS        0.2876         C 43 -- C 64          +2.3% ( 22.5%)     29.8%
 EFFECTIVE MASS     12.0110
 FORCE CONSTANT      0.2461

 VIBRATION        164   55E           ATOM PAIR      ENERGY CONTRIBUTION    RADIAL
 FREQUENCY          1205.30         C 33 -- C 34          +4.0% ( 28.6%)     84.8%
 TRANSITION DIPOLE   0.0015         C 11 -- C 12          +2.7% ( 23.8%)     84.0%
 TRAVEL (Ang.)       0.4702         C 33 -- C 54          +2.3% ( 21.7%)      0.1%
 REDUCED MASS        0.2531         C 37 -- C 56          +2.1% ( 21.0%)     17.4%
 EFFECTIVE MASS     12.0110
 FORCE CONSTANT      0.2166

 VIBRATION        165   32A1          ATOM PAIR      ENERGY CONTRIBUTION    RADIAL
 FREQUENCY          1213.03         C 15 -- C 16          +1.4% ( 16.9%)      3.3%
 TRANSITION DIPOLE   0.0735         C 51 -- C 52          +1.4% ( 16.9%)      3.3%
 TRAVEL (Ang.)       0.5048         C 61 -- C 62          +1.4% ( 16.9%)      3.3%
 REDUCED MASS        0.2182         C 13 -- C 14          +1.4% ( 16.7%)      3.1%
 EFFECTIVE MASS     12.0110
 FORCE CONSTANT      0.1891

 VIBRATION        167   56E           ATOM PAIR      ENERGY CONTRIBUTION    RADIAL
 FREQUENCY          1213.11         C 43 -- C 44          +1.7% ( 18.2%)      0.0%
 TRANSITION DIPOLE   0.0279         C  3 -- C  4          +1.7% ( 18.1%)      0.0%
 TRAVEL (Ang.)       0.5162         C 41 -- C 42          +1.7% ( 18.1%)      0.0%
 REDUCED MASS        0.2086         C 35 -- C 36          +1.7% ( 18.1%)      0.0%
 EFFECTIVE MASS     12.0110
 FORCE CONSTANT      0.1809

 VIBRATION        168   33A1          ATOM PAIR      ENERGY CONTRIBUTION    RADIAL
 FREQUENCY          1213.12         C  5 -- C 12          +1.8% ( 17.4%)      2.2%
 TRANSITION DIPOLE   0.0555         C 17 -- C 36          +1.8% ( 17.4%)      2.2%
 TRAVEL (Ang.)       0.5293         C 21 -- C 42          +1.8% ( 17.4%)      2.2%
 REDUCED MASS        0.1984         C 37 -- C 44          +1.7% ( 17.1%)      2.7%
 EFFECTIVE MASS     12.0110
 FORCE CONSTANT      0.1720

 VIBRATION        169   34A1          ATOM PAIR      ENERGY CONTRIBUTION    RADIAL
 FREQUENCY          1237.47         C  7 -- C 28          +2.0% ( 20.0%)     88.0%
 TRANSITION DIPOLE   0.0324         C 19 -- C 40          +2.0% ( 20.0%)     88.0%
 TRAVEL (Ang.)       0.4765         C 13 -- C 32          +2.0% ( 20.0%)     88.0%
 REDUCED MASS        0.2399         C 29 -- C 46          +2.0% ( 20.0%)     88.0%
 EFFECTIVE MASS     12.0110
 FORCE CONSTANT      0.2165

 VIBRATION        170   24A2          ATOM PAIR      ENERGY CONTRIBUTION    RADIAL
 FREQUENCY          1237.47         C 17 -- C 38          +2.6% ( 22.6%)     88.9%
 TRANSITION DIPOLE   0.0000         C 21 -- C 38          +2.6% ( 22.6%)     88.9%
 TRAVEL (Ang.)       0.4636         C  5 -- C 26          +2.6% ( 22.6%)     88.9%
 REDUCED MASS        0.2535         C  5 -- C 24          +2.6% ( 22.6%)     88.9%
 EFFECTIVE MASS     12.0110
 FORCE CONSTANT      0.2287

 VIBRATION        172   57E           ATOM PAIR      ENERGY CONTRIBUTION    RADIAL
 FREQUENCY          1237.49         C  9 -- C 30          +3.0% ( 26.0%)     92.9%
 TRANSITION DIPOLE   0.0344         C 35 -- C 56          +2.9% ( 26.0%)     93.3%
 TRAVEL (Ang.)       0.4357         C 41 -- C 58          +2.9% ( 25.9%)     96.6%
 REDUCED MASS        0.2870         C  3 -- C 20          +2.9% ( 25.9%)     96.3%
 EFFECTIVE MASS     12.0110
 FORCE CONSTANT      0.2590

 VIBRATION        174   58E           ATOM PAIR      ENERGY CONTRIBUTION    RADIAL
 FREQUENCY          1237.52         C 23 -- C 44          +2.4% ( 20.9%)     63.2%
 TRANSITION DIPOLE   0.0030         C 55 -- C 60          +2.2% ( 20.0%)     95.4%
 TRAVEL (Ang.)       0.4585         C 57 -- C 64          +2.1% ( 19.5%)     97.0%
 REDUCED MASS        0.2592         C 25 -- C 44          +2.1% ( 19.4%)     58.1%
 EFFECTIVE MASS     12.0110
 FORCE CONSTANT      0.2338

 VIBRATION        175   35A1          ATOM PAIR      ENERGY CONTRIBUTION    RADIAL
 FREQUENCY          1237.59         C 11 -- C 16          +3.0% ( 26.8%)     97.8%
 TRANSITION DIPOLE   0.1564         C 35 -- C 52          +3.0% ( 26.8%)     97.8%
 TRAVEL (Ang.)       0.4051         C 41 -- C 62          +3.0% ( 26.8%)     97.8%
 REDUCED MASS        0.3320         C 33 -- C 38          +3.0% ( 26.7%)     98.0%
 EFFECTIVE MASS     12.0110
 FORCE CONSTANT      0.2996

 VIBRATION        177   59E           ATOM PAIR      ENERGY CONTRIBUTION    RADIAL
 FREQUENCY          1237.64         C 37 -- C 56          +3.1% ( 25.0%)     93.7%
 TRANSITION DIPOLE   0.0197         C 37 -- C 58          +3.0% ( 24.3%)     90.1%
 TRAVEL (Ang.)       0.4709         C  3 -- C  4          +1.8% ( 19.1%)     95.4%
 REDUCED MASS        0.2457         C 21 -- C 22          +1.8% ( 18.9%)     97.9%
 EFFECTIVE MASS     12.0110
 FORCE CONSTANT      0.2218

 VIBRATION        179   60E           ATOM PAIR      ENERGY CONTRIBUTION    RADIAL
 FREQUENCY          1237.77         C 23 -- C 44          +3.3% ( 25.2%)     94.5%
 TRANSITION DIPOLE   0.0521         C 61 -- C 62          +3.1% ( 24.1%)     87.3%
 TRAVEL (Ang.)       0.4374         C 23 -- C 24          +3.0% ( 24.1%)     87.4%
 REDUCED MASS        0.2847         C 25 -- C 44          +2.8% ( 23.2%)     87.4%
 EFFECTIVE MASS     12.0110
 FORCE CONSTANT      0.2570

 VIBRATION        180   36A1          ATOM PAIR      ENERGY CONTRIBUTION    RADIAL
 FREQUENCY          1237.97         C 21 -- C 42          +4.0% ( 26.2%)     97.9%
 TRANSITION DIPOLE   0.1279         C 17 -- C 36          +4.0% ( 26.2%)     97.9%
 TRAVEL (Ang.)       0.4083         C  5 -- C 12          +4.0% ( 26.2%)     97.9%
 REDUCED MASS        0.3267         C  1 -- C  2          +2.8% ( 21.7%)    100.0%
 EFFECTIVE MASS     12.0110
 FORCE CONSTANT      0.2950

 VIBRATION        181   37A1          ATOM PAIR      ENERGY CONTRIBUTION    RADIAL
 FREQUENCY          1246.83         C 21 -- C 22          +1.3% ( 17.0%)    100.0%
 TRANSITION DIPOLE   0.0187         C 17 -- C 18          +1.3% ( 17.0%)    100.0%
 TRAVEL (Ang.)       0.5366         C  5 -- C  6          +1.3% ( 17.0%)    100.0%
 REDUCED MASS        0.1878         C  3 -- C  4          +1.3% ( 16.9%)    100.0%
 EFFECTIVE MASS     12.0110
 FORCE CONSTANT      0.1720

 VIBRATION        183   61E           ATOM PAIR      ENERGY CONTRIBUTION    RADIAL
 FREQUENCY          1247.10         C 41 -- C 58          +1.3% ( 16.6%)     67.1%
 TRANSITION DIPOLE   0.0546         C 41 -- C 46          +1.3% ( 16.6%)     67.1%
 TRAVEL (Ang.)       0.5365         C 57 -- C 64          +1.3% ( 16.6%)     67.5%
 REDUCED MASS        0.1879         C 45 -- C 64          +1.3% ( 16.6%)     67.5%
 EFFECTIVE MASS     12.0110
 FORCE CONSTANT      0.1721

 VIBRATION        185   62E           ATOM PAIR      ENERGY CONTRIBUTION    RADIAL
 FREQUENCY          1262.12         C  1 -- C 22          +1.9% ( 19.9%)     74.1%
 TRANSITION DIPOLE   2.4681         C  3 -- C  4          +1.8% ( 19.8%)     74.9%
 TRAVEL (Ang.)       0.4772         C 41 -- C 42          +1.8% ( 19.7%)     73.7%
 REDUCED MASS        0.2346         C 11 -- C 28          +1.8% ( 19.6%)     74.3%
 EFFECTIVE MASS     12.0110
 FORCE CONSTANT      0.2202

 VIBRATION        187   63E           ATOM PAIR      ENERGY CONTRIBUTION    RADIAL
 FREQUENCY          1262.32         C 21 -- C 26          +2.1% ( 19.4%)     75.4%
 TRANSITION DIPOLE   1.1095         C 23 -- C 40          +2.0% ( 19.1%)     75.7%
 TRAVEL (Ang.)       0.4772         C 29 -- C 30          +2.0% ( 18.9%)     72.9%
 REDUCED MASS        0.2346         C 55 -- C 56          +2.0% ( 18.8%)     74.4%
 EFFECTIVE MASS     12.0110
 FORCE CONSTANT      0.2202

 VIBRATION        188   38A1          ATOM PAIR      ENERGY CONTRIBUTION    RADIAL
 FREQUENCY          1262.45         C  3 -- C 24          +1.9% ( 20.1%)     99.6%
 TRANSITION DIPOLE   2.6481         C  9 -- C 26          +1.9% ( 20.1%)     99.6%
 TRAVEL (Ang.)       0.4938         C 33 -- C 38          +1.9% ( 20.1%)     99.6%
 REDUCED MASS        0.2191         C 41 -- C 62          +1.9% ( 20.1%)     99.6%
 EFFECTIVE MASS     12.0110
 FORCE CONSTANT      0.2057

 VIBRATION        189   39A1          ATOM PAIR      ENERGY CONTRIBUTION    RADIAL
 FREQUENCY          1262.64         C 21 -- C 42          +1.9% ( 18.3%)     93.5%
 TRANSITION DIPOLE   0.6170         C 17 -- C 36          +1.9% ( 18.3%)     93.5%
 TRAVEL (Ang.)       0.4938         C  5 -- C 12          +1.9% ( 18.3%)     93.5%
 REDUCED MASS        0.2190         C 23 -- C 44          +1.7% ( 17.5%)     31.9%
 EFFECTIVE MASS     12.0110
 FORCE CONSTANT      0.2057

           FORCE CONSTANT IN CARTESIAN COORDINATES (Millidynes/A)

    ATOM   CHEMICAL       X               Y               Z
   NUMBER   SYMBOL  FORCE CONSTANT  FORCE CONSTANT  FORCE CONSTANT

      1       C        7.297554        7.310033        7.310033
      2       C        7.293157        7.309523        7.309523
      3       C        7.319779        7.296958        7.302869
      4       C        7.317322        7.325962        7.312449
      5       C        7.318360        7.320457        7.314008
      6       C        7.323246        7.317126        7.313500
      7       C        7.299342        7.297778        7.307356
      8       C        7.294918        7.293815        7.309907
      9       C        7.319779        7.301391        7.298436
     10       C        7.317322        7.315827        7.322584
     11       C        7.297171        7.314433        7.307865
     12       C        7.307093        7.298169        7.303663
     13       C        7.299342        7.305273        7.299861
     14       C        7.294918        7.311231        7.292491
     15       C        7.302694        7.307022        7.304936
     16       C        7.311628        7.307012        7.311358
     17       C        7.318360        7.320457        7.314008
     18       C        7.323246        7.317126        7.313500
     19       C        7.299342        7.297778        7.307356
     20       C        7.294918        7.293815        7.309907
     21       C        7.318360        7.310783        7.323682
     22       C        7.323246        7.311687        7.318938
     23       C        7.300477        7.302096        7.322458
     24       C        7.304209        7.311744        7.323000
     25       C        7.300477        7.317367        7.307186
     26       C        7.304209        7.320186        7.314558
     27       C        7.299657        7.320842        7.303792
     28       C        7.310585        7.306948        7.311615
     29       C        7.299342        7.304650        7.300484
     30       C        7.294918        7.300537        7.303185
     31       C        7.299657        7.301623        7.323012
     32       C        7.310585        7.309746        7.308817
     33       C        7.319779        7.301391        7.298436
     34       C        7.317322        7.315827        7.322584
     35       C        7.297171        7.314433        7.307865
     36       C        7.307093        7.298169        7.303663
     37       C        7.300477        7.317367        7.307186
     38       C        7.304209        7.320186        7.314558
     39       C        7.299657        7.320842        7.303792
     40       C        7.310585        7.306948        7.311615
     41       C        7.297171        7.304581        7.317717
     42       C        7.307093        7.306411        7.295421
     43       C        7.320211        7.292612        7.292612
     44       C        7.304094        7.309440        7.309440
     45       C        7.299657        7.314487        7.310148
     46       C        7.310585        7.311151        7.307412
     47       C        7.297999        7.307957        7.309618
     48       C        7.297925        7.309024        7.305557
     49       C        7.299342        7.305273        7.299861
     50       C        7.294918        7.311231        7.292491
     51       C        7.302694        7.307022        7.304936
     52       C        7.311628        7.307012        7.311358
     53       C        7.299342        7.304650        7.300484
     54       C        7.294918        7.300537        7.303185
     55       C        7.299657        7.301623        7.323012
     56       C        7.310585        7.309746        7.308817
     57       C        7.299657        7.314487        7.310148
     58       C        7.310585        7.311151        7.307412
     59       C        7.297999        7.307957        7.309618
     60       C        7.297925        7.309024        7.305557
     61       C        7.302694        7.303893        7.308066
     62       C        7.311628        7.313531        7.304839
     63       C        7.297999        7.310449        7.307127
     64       C        7.297925        7.303824        7.310757

 **********************
 *                    *
 * JOB ENDED NORMALLY *
 *                    *
 **********************



 TOTAL JOB TIME:           633.82 SECONDS

 == MOPAC DONE ==
