 *******************************************************************************
 ** Cite this program as: MOPAC2016, Version: 22.066W, James J. P. Stewart,   **
 **                           web-site: HTTP://OpenMOPAC.net.                 **
 *******************************************************************************
 **                                                                           **
 **                                MOPAC2016                                  **
 **                                                                           **
 *******************************************************************************

                              PM7 CALCULATION RESULTS

 *******************************************************************************
 *  CALCULATION DONE:                                Tue May 10 09:58:10 2022  *
 *  PM7        - The PM7 Hamiltonian to be used
 *
 *
 *
 *                 CHARGE ON SYSTEM = +1
 *
 *
 *
 *  EPS=8.2    - USE ANDREAS KLAMT'S COSMO IMPLICIT SOLVATION MODEL
 *  EF         - USE EF ROUTINE FOR MINIMUM SEARCH
 *  T=         - A TIME OF 172800.0 SECONDS REQUESTED
 *  DUMP=N     - RESTART FILE WRITTEN EVERY 7200.0 SECONDS REQUESTED
 *******************************************************************************


           POINTS ON REACTION COORDINATE
              1.45    1.50    1.60    1.70    1.80    1.90    2.00    2.05
              2.10    2.15    2.20    2.30    2.40    2.50    2.60
PM7 CHARGE=1 EPS=8.2 EF
 ortho
 (in 1,1,2,2-tetrachloroethane (TeCA))
  ATOM    CHEMICAL      BOND LENGTH      BOND ANGLE     TWIST ANGLE 
 NUMBER    SYMBOL       (ANGSTROMS)      (DEGREES)       (DEGREES) 
   (I)                     NA:I           NB:NA:I       NC:NB:NA:I       NA    NB    NC 
     1       C          0.00000000       0.0000000       0.0000000        0     0     0
     2       C          1.45000000  +    0.0000000       0.0000000        1     0     0
     3       C          1.36964800  *  117.7509480  *    0.0000000        1     2     0
     4       C          1.49805000  *  117.0736400  *  147.5715400  *     1     2     3
     5       O          1.22229600  *  119.1193700  * -128.0319140  *     2     1     3
     6       C          1.49939400  *  119.6755000  *  160.8170000  *     3     1     2
     7       C          1.34081700  *  121.7555000  * -158.8877340  *     4     1     2
     8       C          1.33872400  *  120.6419920  *   -7.7797540  *     6     3     1
     9       O          1.36093800  *  119.8098220  *  -19.5798370  *     3     1     2
    10       H          1.08640500  *  119.5368120  *   22.9265510  *     4     1     2
    11       H          1.08538000  *  120.2327870  * -178.2586830  *     7     4     1
    12       H          1.08354400  *  121.0819450  *  173.6625360  *     6     3     1
    13       H          1.08544200  *  120.2719420  * -178.9096240  *     8     6     3
    14      Al          1.82916700  *  130.6135570  * -179.7178000  *     9     3     1
    15      Cl          2.21102500  *  109.6607340  *  -59.8835860  *    14     9     3
    16      Cl          2.21140400  *  109.7458850  *   60.8852670  *    14     9     3
    17       H          1.08779200  *   98.9586580  * -105.4888110  *     1     2     3
    18       C          1.50690900  *  123.1395070  *   54.3336580  *     2     1     3
    19       H          1.10875400  *  112.2914110  *    1.7772290  *    18     2     1
    20       H          1.11013600  *  109.6798480  * -119.9042270  *    18     2     1
    21       H          1.11016200  *  109.2004280  *  120.7043610  *    18     2     1
 


          CARTESIAN COORDINATES 

    NO.       ATOM           X           Y           Z

     1         C          0.0000      0.0000      0.0000
     2         C          1.4500      0.0000      0.0000
     3         C         -0.6377      1.2121      0.0000
     4         C         -0.6818     -1.1259     -0.7153
     5         O          2.0448     -0.6579     -0.8411
     6         C         -2.0723      1.2961     -0.4281
     7         C         -1.9500     -1.0275     -1.1393
     8         C         -2.6903      0.2323     -0.9558
     9         O          0.0318      2.3289      0.3957
    10         H         -0.1504     -2.0603     -0.8727
    11         H         -2.4290     -1.8687     -1.6301
    12         H         -2.6287      2.2218     -0.3410
    13         H         -3.7237      0.3048     -1.2799
    14        Al         -0.5209      4.0683      0.5171
    15        Cl         -1.1667      4.7842     -1.4727
    16        Cl         -2.1974      4.2212      1.9510
    17         H         -0.1694     -0.2870      1.0355
    18         C          2.2738      0.7357      1.0251
    19         H          1.6451      1.2420      1.7852
    20         H          2.9145      1.4883      0.5197
    21         H          2.9216      0.0110      1.5613

 General Reference for PM7:
 "Optimization of Parameters for Semiempirical Methods VI: More Modifications to the 
 NDDO Approximations and Re-optimization of Parameters", J. J. P. Stewart, J. Mol. Mod., 1:32, 19 (2013)
 https://link.springer.com/article/10.1007/s00894-012-1667-x

           Empirical Formula: C8 H8 O2 Al Cl2  =    21 atoms



      MOLECULAR POINT GROUP   :   C1  


      RHF CALCULATION, NO. OF DOUBLY OCCUPIED LEVELS = 34

  ABOUT TO ENTER EF FROM PATH

          DIAGONAL MATRIX USED AS START HESSIAN

 CYCLE:     1 TIME:   0.234 TIME LEFT:  2.00D  GRAD.:   276.290 HEAT:  16.65309
 CYCLE:     2 TIME:   0.184 TIME LEFT:  2.00D  GRAD.:   493.160 HEAT:  9.112341
 CYCLE:     3 TIME:   0.051 TIME LEFT:  2.00D  GRAD.:   185.318 HEAT: -6.965648
 CYCLE:     4 TIME:   0.047 TIME LEFT:  2.00D  GRAD.:   165.627 HEAT: -20.13825
 CYCLE:     5 TIME:   0.047 TIME LEFT:  2.00D  GRAD.:    59.608 HEAT: -31.50525
 CYCLE:     6 TIME:   0.039 TIME LEFT:  2.00D  GRAD.:    69.575 HEAT: -37.65098
 CYCLE:     7 TIME:   0.035 TIME LEFT:  2.00D  GRAD.:   107.247 HEAT: -38.91577
 CYCLE:     8 TIME:   0.039 TIME LEFT:  2.00D  GRAD.:    61.825 HEAT: -42.89673
 CYCLE:     9 TIME:   0.078 TIME LEFT:  2.00D  GRAD.:    59.148 HEAT: -43.40705
 CYCLE:    10 TIME:   0.043 TIME LEFT:  2.00D  GRAD.:    26.721 HEAT: -44.84027
 CYCLE:    11 TIME:   0.035 TIME LEFT:  2.00D  GRAD.:    19.718 HEAT: -45.37011
 CYCLE:    12 TIME:   0.039 TIME LEFT:  2.00D  GRAD.:    19.013 HEAT: -45.88749
 CYCLE:    13 TIME:   0.047 TIME LEFT:  2.00D  GRAD.:    22.317 HEAT: -46.74399
 CYCLE:    14 TIME:   0.047 TIME LEFT:  2.00D  GRAD.:    20.772 HEAT: -48.54058
 CYCLE:    15 TIME:   0.051 TIME LEFT:  2.00D  GRAD.:    43.600 HEAT: -49.77582
 CYCLE:    16 TIME:   0.055 TIME LEFT:  2.00D  GRAD.:   115.366 HEAT: -50.54752
 CYCLE:    17 TIME:   0.051 TIME LEFT:  2.00D  GRAD.:   158.746 HEAT: -50.90860
 CYCLE:    18 TIME:   0.035 TIME LEFT:  2.00D  GRAD.:   148.226 HEAT: -55.98341
 CYCLE:    19 TIME:   0.090 TIME LEFT:  2.00D  GRAD.:   147.641 HEAT: -59.99705
 CYCLE:    20 TIME:   0.043 TIME LEFT:  2.00D  GRAD.:    91.312 HEAT: -64.97800
 CYCLE:    21 TIME:   0.078 TIME LEFT:  2.00D  GRAD.:   104.820 HEAT: -67.13364


 ALL CONVERGERS ARE NOW FORCED ON
 SHIFT=10, PULAY ON, CAMP-KING ON
 AND ITERATION COUNTER RESET


 CYCLE:    22 TIME:   2.797 TIME LEFT:  2.00D  GRAD.:    51.582 HEAT: -68.35280
 CYCLE:    23 TIME:   0.051 TIME LEFT:  2.00D  GRAD.:    81.141 HEAT: -68.94473
 CYCLE:    24 TIME:   0.051 TIME LEFT:  2.00D  GRAD.:    28.350 HEAT: -69.58903
 CYCLE:    25 TIME:   0.047 TIME LEFT:  2.00D  GRAD.:    43.903 HEAT: -69.71376
 CYCLE:    26 TIME:   0.051 TIME LEFT:  2.00D  GRAD.:    37.175 HEAT: -69.95081
 CYCLE:    27 TIME:   0.035 TIME LEFT:  2.00D  GRAD.:    28.602 HEAT: -70.13937
 CYCLE:    28 TIME:   0.035 TIME LEFT:  2.00D  GRAD.:    12.837 HEAT: -70.24396
 CYCLE:    29 TIME:   0.035 TIME LEFT:  2.00D  GRAD.:    10.421 HEAT: -70.33143
 CYCLE:    30 TIME:   0.039 TIME LEFT:  2.00D  GRAD.:     7.220 HEAT: -70.38147
 CYCLE:    31 TIME:   0.039 TIME LEFT:  2.00D  GRAD.:     9.193 HEAT: -70.47779
 CYCLE:    32 TIME:   0.039 TIME LEFT:  2.00D  GRAD.:     6.754 HEAT: -70.51156
 CYCLE:    33 TIME:   0.035 TIME LEFT:  2.00D  GRAD.:     2.054 HEAT: -70.58255
 CYCLE:    34 TIME:   0.043 TIME LEFT:  2.00D  GRAD.:     6.031 HEAT: -70.62208
 CYCLE:    35 TIME:   0.043 TIME LEFT:  2.00D  GRAD.:     8.965 HEAT: -70.67971
 CYCLE:    36 TIME:   0.121 TIME LEFT:  2.00D  GRAD.:     3.729 HEAT: -70.70764
 CYCLE:    37 TIME:   0.320 TIME LEFT:  2.00D  GRAD.:     1.983 HEAT: -70.70997
 CYCLE:    38 TIME:   0.301 TIME LEFT:  2.00D  GRAD.:     1.757 HEAT: -70.70634
 CYCLE:    39 TIME:   0.414 TIME LEFT:  2.00D  GRAD.:     1.671 HEAT: -70.70659

     TRUST RADIUS NOW LESS THAN  0.00010 OPTIMIZATION TERMINATING
      THE GEOMETRY MAY NOT BE COMPLETELY OPTIMIZED
      (TO CONTINUE, ADD 'LET DDMIN=0.0' TO THE KEYWORD LINE)
  OPTIMIZED VALUES OF PARAMETERS, INITIAL POINT

 -------------------------------------------------------------------------------
 PM7 CHARGE=1 EPS=8.2 EF
 ortho
 (in 1,1,2,2-tetrachloroethane (TeCA))


     GEOMETRY OPTIMISED USING EIGENVECTOR FOLLOWING (EF).     
     SCF FIELD WAS ACHIEVED                                   


                              PM7 CALCULATION
                                                       MOPAC2016 (Version: 22.066W)
                                                       Tue May 10 09:58:16 2022




          FINAL HEAT OF FORMATION =        -70.70995 KCAL/MOL =    -295.85045 KJ/MOL
          VAN DER WAALS AREA      =        225.92 SQUARE ANGSTROMS

          DIELECTRIC ENERGY       =         -2.37584 EV
          COSMO AREA              =        225.92 SQUARE ANGSTROMS
          COSMO VOLUME            =        242.12 CUBIC ANGSTROMS
          GRADIENT NORM           =          1.98347          =       0.43283 PER ATOM
          FOR REACTION COORDINATE =          1.45000 ANGSTROMS
          REACTION GRADIENT       =        -57.39871 KCAL/ANGSTROM
          IONIZATION POTENTIAL    =         11.362728 EV
          HOMO LUMO ENERGIES (EV) =        -11.363 -2.877
          NO. OF FILLED LEVELS    =         34
          MOLECULAR WEIGHT        =        234.0375         POINT GROUP:  C1  

          MOLECULAR DIMENSIONS (Angstroms)

            Atom       Atom       Distance
           Cl    15    H    11     7.99815
            H    21    H    12     5.77106
            H    17   Cl    16     4.26927
          SCF CALCULATIONS        =         78
 
          WALL-CLOCK TIME         =          6.316 SECONDS
          COMPUTATION TIME        =         10.359 SECONDS




  ATOM    CHEMICAL      BOND LENGTH      BOND ANGLE     TWIST ANGLE 
 NUMBER    SYMBOL       (ANGSTROMS)      (DEGREES)       (DEGREES) 
   (I)                     NA:I           NB:NA:I       NC:NB:NA:I       NA    NB    NC 
     1       C          0.00000000       0.0000000       0.0000000        0     0     0
     2       C          1.45000000  +    0.0000000       0.0000000        1     0     0
     3       C          1.50541656  *  113.1271448  *    0.0000000        1     2     0
     4       C          1.49644415  *  113.4734955  *  129.6325035  *     1     2     3
     5       O          1.20445636  *  122.4892876  * -119.0970353  *     2     1     3
     6       C          1.40948652  *  122.3583945  *  141.4377860  *     3     1     2
     7       C          1.34939793  *  122.0997559  * -139.3324112  *     4     1     2
     8       C          1.36990233  *  119.6237463  *   -6.7731577  *     6     3     1
     9       O          1.26509529  *  117.2799894  *  -38.2676925  *     3     1     2
    10       H          1.09883210  *  115.3357311  *   42.5579701  *     4     1     2
    11       H          1.09809876  *  120.8623408  * -177.6738531  *     7     4     1
    12       H          1.09832523  *  118.6413463  *  174.7829921  *     6     3     1
    13       H          1.10290681  *  120.6369740  * -179.3908492  *     8     6     3
    14      Al          1.82053230  *  148.7240001  *    4.7737322  *     9     3     1
    15      Cl          2.01953990  *  115.2693964  *  -99.1453583  *    14     9     3
    16      Cl          2.02748870  *  111.7293226  *  113.2073388  *    14     9     3
    17       H          1.17274800  *  108.6005793  * -116.3372994  *     1     2     3
    18       C          1.52063898  *  118.2736393  *   61.2822865  *     2     1     3
    19       H          1.16342690  *  114.0496772  *   20.6823087  *    18     2     1
    20       H          1.16764567  *  110.6385615  * -116.6121970  *    18     2     1
    21       H          1.13282025  *  108.7519041  *  133.3815535  *    18     2     1

                             CARTESIAN COORDINATES

   1    C        0.000000000     0.000000000     0.000000000
   2    C        1.450000000     0.000000000     0.000000000
   3    C       -0.591286759     1.384434542     0.000000000
   4    C       -0.596070821    -0.875531231    -1.057113869
   5    O        2.096963990    -0.494046090    -0.887733726
   6    C       -1.743748634     1.712521622    -0.742187800
   7    C       -1.676992311    -0.501062332    -1.772834873
   8    C       -2.279677033     0.791521067    -1.603100760
   9    O       -0.007191898     2.264412882     0.696374471
  10    H       -0.112366091    -1.853817304    -1.185246917
  11    H       -2.120685526    -1.175196534    -2.517482637
  12    H       -2.173489591     2.717105607    -0.630599121
  13    H       -3.175188645     1.034078157    -2.199446663
  14   Al        1.396490838     2.729135007     1.758469554
  15   Cl        1.029521244     2.677596031     3.743719784
  16   Cl        2.577761474     4.120250916     0.875233087
  17    H       -0.374070129    -0.493117647     0.996114647
  18    C        2.170300937     0.643487915     1.174492561
  19    H        1.519510214     0.741271682     2.133904841
  20    H        2.796332220     1.563021594     0.819613621
  21    H        2.991680805    -0.053830293     1.524298439


           Empirical Formula: C8 H8 O2 Al Cl2  =    21 atoms



      MOLECULAR POINT GROUP   :   C1  


                  EIGENVALUES  
 -34.23279 -33.12040 -31.88535 -29.85030 -28.10301 -27.30617 -26.98195 -26.29422
 -24.51574 -22.69560 -21.45901 -20.23024 -19.13937 -18.63600 -18.45789 -17.76193
 -17.20935 -16.75028 -16.28703 -16.04983 -15.71327 -15.17769 -14.77730 -14.64643
 -14.19835 -14.07993 -13.61011 -13.45412 -13.24052 -12.99037 -12.59450 -12.20830
 -12.05242 -11.36273  -2.87727  -1.24952  -1.09645  -0.20221   0.14189   0.38539
   0.41002   0.79675   1.14294   1.19105   1.56468   2.07731   2.17980   2.38190
   2.64440   2.86336   2.95460   3.23824   3.35473   3.51127   3.76301   4.29757
   4.36130   4.47355   4.83133   4.93516  16.58330  16.81891  17.49296  18.28700
  18.67751  68.99276  69.11062  69.44669  69.66666  69.74579  69.94433  69.94971
  70.31345  70.57173  70.83681


              NET ATOMIC CHARGES AND DIPOLE CONTRIBUTIONS

  ATOM NO.   TYPE          CHARGE      No. of ELECS.   s-Pop       p-Pop       d-Pop       
    1          C          -0.411353        4.4114     1.07946     3.33189
    2          C           0.537198        3.4628     1.09272     2.37009
    3          C           0.678491        3.3215     1.11894     2.20257
    4          C           0.036215        3.9638     1.11294     2.85084
    5          O          -0.416546        6.4165     1.87827     4.53828
    6          C          -0.390533        4.3905     1.08089     3.30964
    7          C          -0.267949        4.2679     1.08615     3.18180
    8          C           0.163427        3.8366     1.12399     2.71258
    9          O          -0.537115        6.5371     1.67002     4.86710
   10          H           0.200768        0.7992     0.79923
   11          H           0.209642        0.7904     0.79036
   12          H           0.231635        0.7684     0.76836
   13          H           0.200437        0.7996     0.79956
   14         Al           0.480457        2.5195     0.22139     1.34634     0.95181
   15         Cl          -0.161395        7.1614     1.95461     5.20365     0.00313
   16         Cl          -0.184823        7.1848     1.95488     5.22678     0.00317
   17          H           0.315266        0.6847     0.68473
   18          C          -0.466110        4.4661     1.04705     3.41906
   19          H           0.244361        0.7556     0.75564
   20          H           0.261098        0.7389     0.73890
   21          H           0.276829        0.7232     0.72317
 DIPOLE           X         Y         Z       TOTAL
 POINT-CHG.    -5.831    -8.124    -2.732    10.367
 HYBRID         0.141     0.285     0.260     0.411
 SUM           -5.690    -7.840    -2.472     9.998


          ATOMIC ORBITAL ELECTRON POPULATIONS

     Atom    s        px        py        pz      x^2-y^2     xz        z^2       yz        xy
    1  C   1.07946   1.08241   1.06162   1.18786
    2  C   1.09272   0.85408   0.71438   0.80163
    3  C   1.11894   0.78450   0.77037   0.64770
    4  C   1.11294   0.94667   1.04043   0.86374
    5  O   1.87827   1.70531   1.40484   1.42813
    6  C   1.08089   1.05822   1.15158   1.09984
    7  C   1.08615   1.03821   1.04767   1.09592
    8  C   1.12399   0.95038   0.92023   0.84197
    9  O   1.67002   1.66665   1.60950   1.59094
   10  H   0.79923
   11  H   0.79036
   12  H   0.76836
   13  H   0.79956
   14 Al   0.22139   0.41555   0.42479   0.50601   0.16540   0.20569   0.22199   0.18455   0.17419
   15 Cl   1.95461   1.80387   1.81899   1.58079   0.00051   0.00078   0.00034   0.00104   0.00046
   16 Cl   1.95488   1.74754   1.69213   1.78711   0.00106   0.00038   0.00072   0.00036   0.00066
   17  H   0.68473
   18  C   1.04705   1.16768   1.17839   1.07299
   19  H   0.75564
   20  H   0.73890
   21  H   0.72317
 CYCLE:     1 TIME:   0.039 TIME LEFT:  2.00D  GRAD.:    36.269 HEAT: -72.29864
 CYCLE:     2 TIME:   0.035 TIME LEFT:  2.00D  GRAD.:    34.995 HEAT: -72.30120
 CYCLE:     3 TIME:   0.043 TIME LEFT:  2.00D  GRAD.:    33.788 HEAT: -72.30457
 CYCLE:     4 TIME:   0.035 TIME LEFT:  2.00D  GRAD.:    32.430 HEAT: -72.30929
 CYCLE:     5 TIME:   0.031 TIME LEFT:  2.00D  GRAD.:    30.767 HEAT: -72.31519
 CYCLE:     6 TIME:   0.035 TIME LEFT:  2.00D  GRAD.:    28.662 HEAT: -72.32246
 CYCLE:     7 TIME:   0.027 TIME LEFT:  2.00D  GRAD.:    24.580 HEAT: -72.32729
 CYCLE:     8 TIME:   0.090 TIME LEFT:  2.00D  GRAD.:    22.098 HEAT: -72.33588

     TRUST RADIUS NOW LESS THAN  0.00010 OPTIMIZATION TERMINATING
      THE GEOMETRY MAY NOT BE COMPLETELY OPTIMIZED
      (TO CONTINUE, ADD 'LET DDMIN=0.0' TO THE KEYWORD LINE)
 ********************************************************************************

                 REACTION COORDINATE =       1.5000  ANGSTROMS 

 ********************************************************************************

 -------------------------------------------------------------------------------
 PM7 CHARGE=1 EPS=8.2 EF
 ortho
 (in 1,1,2,2-tetrachloroethane (TeCA))


     GEOMETRY OPTIMISED USING EIGENVECTOR FOLLOWING (EF).     
     SCF FIELD WAS ACHIEVED                                   


                              PM7 CALCULATION
                                                       MOPAC2016 (Version: 22.066W)
                                                       Tue May 10 09:58:17 2022




          FINAL HEAT OF FORMATION =        -72.33589 KCAL/MOL =    -302.65337 KJ/MOL
          VAN DER WAALS AREA      =        226.45 SQUARE ANGSTROMS

          DIELECTRIC ENERGY       =         -2.35895 EV
          COSMO AREA              =        226.45 SQUARE ANGSTROMS
          COSMO VOLUME            =        242.80 CUBIC ANGSTROMS
          GRADIENT NORM           =         22.09812          =       4.82220 PER ATOM
          FOR REACTION COORDINATE =          1.50000 ANGSTROMS
          REACTION GRADIENT       =         -7.20003 KCAL/ANGSTROM
          IONIZATION POTENTIAL    =         11.348435 EV
          HOMO LUMO ENERGIES (EV) =        -11.348 -2.866
          NO. OF FILLED LEVELS    =         34
          MOLECULAR WEIGHT        =        234.0375         POINT GROUP:  C1  

          MOLECULAR DIMENSIONS (Angstroms)

            Atom       Atom       Distance
           Cl    15    H    11     7.99730
            H    21    H    12     5.80154
            H    17   Cl    16     4.27386
          SCF CALCULATIONS        =         12
 
          WALL-CLOCK TIME         =          6.789 SECONDS
          COMPUTATION TIME        =         11.188 SECONDS



       FINAL  POINT  AND  DERIVATIVES

   PARAMETER     ATOM    TYPE            VALUE        GRADIENT
      1          3  C    BOND            1.504619      7.311894  KCAL/ANGSTROM
      2          3  C    ANGLE         113.056351     10.235894  KCAL/RADIAN  
      3          4  C    BOND            1.496036      4.377787  KCAL/ANGSTROM
      4          4  C    ANGLE         113.460849      2.076253  KCAL/RADIAN  
      5          4  C    DIHEDRAL      129.620710      2.498745  KCAL/RADIAN  
      6          5  O    BOND            1.203765      6.981820  KCAL/ANGSTROM
      7          5  O    ANGLE         122.462131      5.061886  KCAL/RADIAN  
      8          5  O    DIHEDRAL      240.900323      0.510060  KCAL/RADIAN  
      9          6  C    BOND            1.409467      0.231136  KCAL/ANGSTROM
     10          6  C    ANGLE         122.350387      1.795446  KCAL/RADIAN  
     11          6  C    DIHEDRAL      141.438304     -0.090934  KCAL/RADIAN  
     12          7  C    BOND            1.349441     -0.487678  KCAL/ANGSTROM
     13          7  C    ANGLE         122.093989      1.317228  KCAL/RADIAN  
     14          7  C    DIHEDRAL      220.666561      0.147588  KCAL/RADIAN  
     15          8  C    BOND            1.369930     -0.353646  KCAL/ANGSTROM
     16          8  C    ANGLE         119.617677      1.289402  KCAL/RADIAN  
     17          8  C    DIHEDRAL      353.225113      0.314577  KCAL/RADIAN  
     18          9  O    BOND            1.265064     -0.395603  KCAL/ANGSTROM
     19          9  O    ANGLE         117.223951      7.093065  KCAL/RADIAN  
     20          9  O    DIHEDRAL      321.761642     -4.839620  KCAL/RADIAN  
     21         10  H    BOND            1.098810      0.228676  KCAL/ANGSTROM
     22         10  H    ANGLE         115.336419     -0.149373  KCAL/RADIAN  
     23         10  H    DIHEDRAL       42.556593      0.253185  KCAL/RADIAN  
     24         11  H    BOND            1.098090      0.119203  KCAL/ANGSTROM
     25         11  H    ANGLE         120.862873     -0.129694  KCAL/RADIAN  
     26         11  H    DIHEDRAL      182.326352     -0.047574  KCAL/RADIAN  
     27         12  H    BOND            1.098325     -0.000259  KCAL/ANGSTROM
     28         12  H    ANGLE         118.641109      0.035706  KCAL/RADIAN  
     29         12  H    DIHEDRAL      174.783088     -0.020989  KCAL/RADIAN  
     30         13  H    BOND            1.102898      0.101634  KCAL/ANGSTROM
     31         13  H    ANGLE         120.636848      0.019095  KCAL/RADIAN  
     32         13  H    DIHEDRAL      180.608943      0.038044  KCAL/RADIAN  
     33         14 Al    BOND            1.820376      1.357354  KCAL/ANGSTROM
     34         14 Al    ANGLE         211.307518     -3.772393  KCAL/RADIAN  
     35         14 Al    DIHEDRAL      184.786914     -2.343592  KCAL/RADIAN  
     36         15 Cl    BOND            2.019477      0.409846  KCAL/ANGSTROM
     37         15 Cl    ANGLE         115.271412     -0.391097  KCAL/RADIAN  
     38         15 Cl    DIHEDRAL      260.857041     -0.318758  KCAL/RADIAN  
     39         16 Cl    BOND            2.027450      0.145674  KCAL/ANGSTROM
     40         16 Cl    ANGLE         111.730763     -0.270916  KCAL/RADIAN  
     41         16 Cl    DIHEDRAL      113.206619      0.012333  KCAL/RADIAN  
     42         17  H    BOND            1.172423      3.451725  KCAL/ANGSTROM
     43         17  H    ANGLE         108.586055      2.738261  KCAL/RADIAN  
     44         17  H    DIHEDRAL      243.663063     -0.058162  KCAL/RADIAN  
     45         18  C    BOND            1.520366      3.154685  KCAL/ANGSTROM
     46         18  C    ANGLE         118.216975      9.369698  KCAL/RADIAN  
     47         18  C    DIHEDRAL       61.270715      1.086010  KCAL/RADIAN  
     48         19  H    BOND            1.163381      0.302959  KCAL/ANGSTROM
     49         19  H    ANGLE         114.049076      0.184630  KCAL/RADIAN  
     50         19  H    DIHEDRAL       20.684399     -0.626279  KCAL/RADIAN  
     51         20  H    BOND            1.167536      0.960099  KCAL/ANGSTROM
     52         20  H    ANGLE         110.640403     -0.248952  KCAL/RADIAN  
     53         20  H    DIHEDRAL      243.397429     -1.554591  KCAL/RADIAN  
     54         21  H    BOND            1.132790      0.217632  KCAL/ANGSTROM
     55         21  H    ANGLE         108.752610     -0.113788  KCAL/RADIAN  
     56         21  H    DIHEDRAL      133.383275     -0.313404  KCAL/RADIAN  




  ATOM    CHEMICAL      BOND LENGTH      BOND ANGLE     TWIST ANGLE 
 NUMBER    SYMBOL       (ANGSTROMS)      (DEGREES)       (DEGREES) 
   (I)                     NA:I           NB:NA:I       NC:NB:NA:I       NA    NB    NC 
     1       C          0.00000000       0.0000000       0.0000000        0     0     0
     2       C          1.50000000  +    0.0000000       0.0000000        1     0     0
     3       C          1.50461888  *  113.0563509  *    0.0000000        1     2     0
     4       C          1.49603622  *  113.4608485  *  129.6207098  *     1     2     3
     5       O          1.20376476  *  122.4621312  * -119.0996767  *     2     1     3
     6       C          1.40946727  *  122.3503872  *  141.4383042  *     3     1     2
     7       C          1.34944055  *  122.0939893  * -139.3334393  *     4     1     2
     8       C          1.36992979  *  119.6176766  *   -6.7748871  *     6     3     1
     9       O          1.26506438  *  117.2239507  *  -38.2383585  *     3     1     2
    10       H          1.09881034  *  115.3364195  *   42.5565929  *     4     1     2
    11       H          1.09808970  *  120.8628726  * -177.6736478  *     7     4     1
    12       H          1.09832547  *  118.6411091  *  174.7830881  *     6     3     1
    13       H          1.10289809  *  120.6368476  * -179.3910568  *     8     6     3
    14      Al          1.82037586  *  148.6924818  *    4.7869142  *     9     3     1
    15      Cl          2.01947650  *  115.2714123  *  -99.1429587  *    14     9     3
    16      Cl          2.02744952  *  111.7307627  *  113.2066195  *    14     9     3
    17       H          1.17242302  *  108.5860548  * -116.3369372  *     1     2     3
    18       C          1.52036641  *  118.2169750  *   61.2707151  *     2     1     3
    19       H          1.16338078  *  114.0490762  *   20.6843987  *    18     2     1
    20       H          1.16753568  *  110.6404029  * -116.6025714  *    18     2     1
    21       H          1.13278989  *  108.7526101  *  133.3832752  *    18     2     1

                             CARTESIAN COORDINATES

   1    C        0.000000000     0.000000000     0.000000000
   2    C        1.500000000     0.000000000     0.000000000
   3    C       -0.589263314     1.384430102     0.000000000
   4    C       -0.595605424    -0.875158869    -1.057107141
   5    O        2.146111181    -0.493952300    -0.887468909
   6    C       -1.741320048     1.713748384    -0.742234956
   7    C       -1.676508745    -0.500574137    -1.772875318
   8    C       -2.278149169     0.793179784    -1.603092422
   9    O       -0.002927728     2.262966346     0.696256081
  10    H       -0.111744526    -1.853324612    -1.185382516
  11    H       -2.120062902    -1.174531163    -2.517752912
  12    H       -2.169928037     2.718826907    -0.630739661
  13    H       -3.173362966     1.036588718    -2.199522250
  14   Al        1.402803923     2.723599645     1.757153693
  15   Cl        1.037864458     2.671382643     3.742695913
  16   Cl        2.586408771     4.112584593     0.873778390
  17    H       -0.373684775    -0.493016750     0.995926663
  18    C        2.218847252     0.643951753     1.174776061
  19    H        1.567206777     0.741575726     2.133571711
  20    H        2.844556877     1.563739908     0.820351477
  21    H        3.040256849    -0.052863401     1.525415275


           Empirical Formula: C8 H8 O2 Al Cl2  =    21 atoms



      MOLECULAR POINT GROUP   :   C1  


                  EIGENVALUES  
 -34.07598 -33.09318 -31.86220 -29.72958 -28.02692 -27.27436 -26.98641 -26.29082
 -24.39047 -22.66513 -21.43588 -20.20330 -19.03028 -18.58591 -18.42399 -17.76209
 -17.20291 -16.72487 -16.30707 -16.03809 -15.68460 -15.18042 -14.79871 -14.65617
 -14.21159 -14.08639 -13.60839 -13.45127 -13.23691 -12.99181 -12.59358 -12.19744
 -12.06565 -11.34843  -2.86584  -1.22273  -1.07852  -0.20131   0.13018   0.36652
   0.39277   0.81296   1.02157   1.22726   1.56661   2.07559   2.16779   2.39501
   2.63264   2.87524   2.95892   3.25542   3.37135   3.51546   3.78041   4.28824
   4.37320   4.48568   4.84222   4.94579  16.56410  16.79044  17.45370  18.25126
  18.65517  68.97508  69.09382  69.43054  69.64986  69.73062  69.92854  69.93404
  70.30027  70.55602  70.82504


              NET ATOMIC CHARGES AND DIPOLE CONTRIBUTIONS

  ATOM NO.   TYPE          CHARGE      No. of ELECS.   s-Pop       p-Pop       d-Pop       
    1          C          -0.404367        4.4044     1.08765     3.31672
    2          C           0.541210        3.4588     1.10477     2.35402
    3          C           0.674729        3.3253     1.11963     2.20564
    4          C           0.031689        3.9683     1.11292     2.85539
    5          O          -0.412888        6.4129     1.87797     4.53492
    6          C          -0.391094        4.3911     1.08089     3.31020
    7          C          -0.267451        4.2675     1.08620     3.18125
    8          C           0.162342        3.8377     1.12401     2.71365
    9          O          -0.537576        6.5376     1.66988     4.86770
   10          H           0.199924        0.8001     0.80008
   11          H           0.209179        0.7908     0.79082
   12          H           0.231090        0.7689     0.76891
   13          H           0.200177        0.7998     0.79982
   14         Al           0.480288        2.5197     0.22230     1.34769     0.94972
   15         Cl          -0.159238        7.1592     1.95458     5.20153     0.00312
   16         Cl          -0.183886        7.1839     1.95487     5.22583     0.00319
   17          H           0.308945        0.6911     0.69106
   18          C          -0.467784        4.4678     1.04728     3.42051
   19          H           0.243355        0.7566     0.75665
   20          H           0.263552        0.7364     0.73645
   21          H           0.277803        0.7222     0.72220
 DIPOLE           X         Y         Z       TOTAL
 POINT-CHG.    -5.619    -8.064    -2.696    10.191
 HYBRID         0.092     0.263     0.233     0.364
 SUM           -5.526    -7.800    -2.462     9.872


          ATOMIC ORBITAL ELECTRON POPULATIONS

     Atom    s        px        py        pz      x^2-y^2     xz        z^2       yz        xy
    1  C   1.08765   1.07789   1.05583   1.18300
    2  C   1.10477   0.84648   0.70867   0.79887
    3  C   1.11963   0.78537   0.77347   0.64679
    4  C   1.11292   0.94789   1.04211   0.86540
    5  O   1.87797   1.69779   1.40639   1.43074
    6  C   1.08089   1.05878   1.15143   1.10000
    7  C   1.08620   1.03855   1.04719   1.09550
    8  C   1.12401   0.95035   0.92071   0.84259
    9  O   1.66988   1.66530   1.61115   1.59124
   10  H   0.80008
   11  H   0.79082
   12  H   0.76891
   13  H   0.79982
   14 Al   0.22230   0.41694   0.42413   0.50662   0.16413   0.20560   0.22235   0.18322   0.17441
   15 Cl   1.95458   1.80350   1.81834   1.57969   0.00050   0.00079   0.00034   0.00103   0.00047
   16 Cl   1.95487   1.74730   1.69192   1.78660   0.00107   0.00038   0.00072   0.00036   0.00066
   17  H   0.69106
   18  C   1.04728   1.16711   1.18197   1.07143
   19  H   0.75665
   20  H   0.73645
   21  H   0.72220
 ********************************************************************************

                 REACTION COORDINATE =       1.6000  ANGSTROMS 

 ********************************************************************************
 CYCLE:     1 TIME:   0.039 TIME LEFT:  2.00D  GRAD.:    59.619 HEAT: -69.70292
 CYCLE:     2 TIME:   0.043 TIME LEFT:  2.00D  GRAD.:    59.575 HEAT: -69.70969
 CYCLE:     3 TIME:   0.027 TIME LEFT:  2.00D  GRAD.:    59.335 HEAT: -69.71734
 CYCLE:     4 TIME:   0.043 TIME LEFT:  2.00D  GRAD.:    58.520 HEAT: -69.73117
 CYCLE:     5 TIME:   0.035 TIME LEFT:  2.00D  GRAD.:    57.264 HEAT: -69.75432
 CYCLE:     6 TIME:   0.027 TIME LEFT:  2.00D  GRAD.:    54.809 HEAT: -69.82098
 CYCLE:     7 TIME:   0.035 TIME LEFT:  2.00D  GRAD.:    49.746 HEAT: -69.89213
 CYCLE:     8 TIME:   0.039 TIME LEFT:  2.00D  GRAD.:    41.320 HEAT: -69.98907
 CYCLE:     9 TIME:   0.035 TIME LEFT:  2.00D  GRAD.:    32.125 HEAT: -70.20854
 CYCLE:    10 TIME:   0.035 TIME LEFT:  2.00D  GRAD.:    21.842 HEAT: -70.61623
 CYCLE:    11 TIME:   0.031 TIME LEFT:  2.00D  GRAD.:    15.643 HEAT: -70.93470
 CYCLE:    12 TIME:   0.035 TIME LEFT:  2.00D  GRAD.:    14.733 HEAT: -70.95823
 CYCLE:    13 TIME:   0.043 TIME LEFT:  2.00D  GRAD.:    13.348 HEAT: -71.02161
 CYCLE:    14 TIME:   0.035 TIME LEFT:  2.00D  GRAD.:    10.752 HEAT: -71.12662
 CYCLE:    15 TIME:   0.035 TIME LEFT:  2.00D  GRAD.:     6.455 HEAT: -71.28881
 CYCLE:    16 TIME:   0.043 TIME LEFT:  2.00D  GRAD.:     4.952 HEAT: -71.39000
 CYCLE:    17 TIME:   0.039 TIME LEFT:  2.00D  GRAD.:     3.100 HEAT: -71.47870
 CYCLE:    18 TIME:   0.027 TIME LEFT:  2.00D  GRAD.:     1.873 HEAT: -71.50808
 CYCLE:    19 TIME:   0.043 TIME LEFT:  2.00D  GRAD.:     1.757 HEAT: -71.51403
 CYCLE:    20 TIME:   0.066 TIME LEFT:  2.00D  GRAD.:     1.606 HEAT: -71.50664
 CYCLE:    21 TIME:   0.035 TIME LEFT:  2.00D  GRAD.:    10.328 HEAT: -71.58375
 CYCLE:    22 TIME:   0.094 TIME LEFT:  2.00D  GRAD.:     3.103 HEAT: -71.58507
 CYCLE:    23 TIME:   0.051 TIME LEFT:  2.00D  GRAD.:     2.491 HEAT: -71.58892
 CYCLE:    24 TIME:   0.047 TIME LEFT:  2.00D  GRAD.:     2.551 HEAT: -71.60645
 CYCLE:    25 TIME:   0.051 TIME LEFT:  2.00D  GRAD.:     1.773 HEAT: -71.67411
 CYCLE:    26 TIME:   0.051 TIME LEFT:  2.00D  GRAD.:     1.289 HEAT: -71.68129
 CYCLE:    27 TIME:   0.055 TIME LEFT:  2.00D  GRAD.:     5.551 HEAT: -71.72498
 CYCLE:    28 TIME:   0.055 TIME LEFT:  2.00D  GRAD.:    13.464 HEAT: -71.76947
 CYCLE:    29 TIME:   0.051 TIME LEFT:  2.00D  GRAD.:     3.607 HEAT: -71.77037
 CYCLE:    30 TIME:   0.051 TIME LEFT:  2.00D  GRAD.:     2.373 HEAT: -71.81452
 CYCLE:    31 TIME:   0.055 TIME LEFT:  2.00D  GRAD.:     1.399 HEAT: -71.82295
 CYCLE:    32 TIME:   0.051 TIME LEFT:  2.00D  GRAD.:    19.930 HEAT: -71.90710
 CYCLE:    33 TIME:   0.191 TIME LEFT:  2.00D  GRAD.:     4.967 HEAT: -71.91073
 CYCLE:    34 TIME:   0.203 TIME LEFT:  2.00D  GRAD.:     2.039 HEAT: -71.90739
 CYCLE:    35 TIME:   0.051 TIME LEFT:  2.00D  GRAD.:     2.276 HEAT: -71.90615
 CYCLE:    36 TIME:   0.105 TIME LEFT:  2.00D  GRAD.:     2.178 HEAT: -71.90752
 CYCLE:    37 TIME:   0.051 TIME LEFT:  2.00D  GRAD.:     2.390 HEAT: -71.90240
 CYCLE:    38 TIME:   0.047 TIME LEFT:  2.00D  GRAD.:     3.468 HEAT: -71.89870
 CYCLE:    39 TIME:   0.035 TIME LEFT:  2.00D  GRAD.:     0.866 HEAT: -71.89489

     GRADIENT =  0.86558 IS LESS THAN CUTOFF =  1.00000



 -------------------------------------------------------------------------------
 PM7 CHARGE=1 EPS=8.2 EF
 ortho
 (in 1,1,2,2-tetrachloroethane (TeCA))


     GEOMETRY OPTIMISED USING EIGENVECTOR FOLLOWING (EF).     
     SCF FIELD WAS ACHIEVED                                   


                              PM7 CALCULATION
                                                       MOPAC2016 (Version: 22.066W)
                                                       Tue May 10 09:58:19 2022




          FINAL HEAT OF FORMATION =        -71.89496 KCAL/MOL =    -300.80851 KJ/MOL
          VAN DER WAALS AREA      =        226.46 SQUARE ANGSTROMS

          DIELECTRIC ENERGY       =         -2.33188 EV
          COSMO AREA              =        226.46 SQUARE ANGSTROMS
          COSMO VOLUME            =        242.77 CUBIC ANGSTROMS
          GRADIENT NORM           =          0.86558          =       0.18889 PER ATOM
          FOR REACTION COORDINATE =          1.60000 ANGSTROMS
          REACTION GRADIENT       =         29.66794 KCAL/ANGSTROM
          IONIZATION POTENTIAL    =         11.302858 EV
          HOMO LUMO ENERGIES (EV) =        -11.303 -2.858
          NO. OF FILLED LEVELS    =         34
          MOLECULAR WEIGHT        =        234.0375         POINT GROUP:  C1  

          MOLECULAR DIMENSIONS (Angstroms)

            Atom       Atom       Distance
           Cl    15    H    11     8.10061
            H    21    H    12     5.65568
            H    17   Cl    16     4.38291
          SCF CALCULATIONS        =         49
 
          WALL-CLOCK TIME         =          8.914 SECONDS
          COMPUTATION TIME        =         14.469 SECONDS




  ATOM    CHEMICAL      BOND LENGTH      BOND ANGLE     TWIST ANGLE 
 NUMBER    SYMBOL       (ANGSTROMS)      (DEGREES)       (DEGREES) 
   (I)                     NA:I           NB:NA:I       NC:NB:NA:I       NA    NB    NC 
     1       C          0.00000000       0.0000000       0.0000000        0     0     0
     2       C          1.60000000  +    0.0000000       0.0000000        1     0     0
     3       C          1.48777689  *  112.6569039  *    0.0000000        1     2     0
     4       C          1.48290478  *  110.7722939  *  128.1955299  *     1     2     3
     5       O          1.19319367  *  118.6385592  * -130.7218472  *     2     1     3
     6       C          1.40998037  *  122.4899357  *  135.8035927  *     3     1     2
     7       C          1.35151727  *  121.8748421  * -135.4459709  *     4     1     2
     8       C          1.37121867  *  119.2539991  *   -5.1829765  *     6     3     1
     9       O          1.26927471  *  117.4861751  *  -45.3889738  *     3     1     2
    10       H          1.09894833  *  115.8648089  *   45.9452828  *     4     1     2
    11       H          1.09732577  *  120.9544705  * -178.0163623  *     7     4     1
    12       H          1.09733561  *  118.9001114  *  176.0325447  *     6     3     1
    13       H          1.10252563  *  120.5628370  * -179.7253238  *     8     6     3
    14      Al          1.80312497  *  149.9448441  *   27.3515735  *     9     3     1
    15      Cl          2.02289525  *  116.7279630  * -111.4053582  *    14     9     3
    16      Cl          2.02935611  *  113.0306415  *   99.6404238  *    14     9     3
    17       H          1.15221355  *  104.8273128  * -117.1672239  *     1     2     3
    18       C          1.50136579  *  117.8793946  *   50.2864331  *     2     1     3
    19       H          1.16481510  *  112.8697661  *   37.6367592  *    18     2     1
    20       H          1.17046642  *  110.1121671  *  -99.3490565  *    18     2     1
    21       H          1.13575787  *  109.1835554  *  150.3254436  *    18     2     1

                             CARTESIAN COORDINATES

   1    C        0.000000000     0.000000000     0.000000000
   2    C        1.600000000     0.000000000     0.000000000
   3    C       -0.573109555     1.372962318     0.000000000
   4    C       -0.525919408    -0.857345616    -1.089666860
   5    O        2.171876987    -0.683192584    -0.793672310
   6    C       -1.651729031     1.743427644    -0.829083905
   7    C       -1.543718714    -0.457791156    -1.884046954
   8    C       -2.131120819     0.844349887    -1.746734894
   9    O       -0.069018329     2.218186003     0.801590445
  10    H       -0.053041905    -1.843832023    -1.194160209
  11    H       -1.942492555    -1.117347135    -2.665129011
  12    H       -2.070978878     2.753085337    -0.734393118
  13    H       -2.970685588     1.112916162    -2.408977984
  14   Al        1.337411437     2.814739957     1.759368274
  15   Cl        1.194824368     2.669538745     3.772001061
  16   Cl        2.315336523     4.349823241     0.861889546
  17    H       -0.294859066    -0.508570161     0.990964470
  18    C        2.302056593     0.847955669     1.020875591
  19    H        1.762481201     0.853413226     2.053165676
  20    H        2.648082006     1.856168308     0.537382753
  21    H        3.300405422     0.371755101     1.278709996


           Empirical Formula: C8 H8 O2 Al Cl2  =    21 atoms



      MOLECULAR POINT GROUP   :   C1  


                  EIGENVALUES  
 -33.94982 -33.26128 -31.83254 -29.74718 -27.94588 -27.23107 -27.02477 -26.28562
 -24.13272 -22.64283 -21.43335 -20.25168 -19.05699 -18.50105 -18.35867 -17.87684
 -17.18100 -16.67755 -16.29965 -16.08159 -15.62368 -15.18503 -14.90197 -14.67080
 -14.19966 -14.05233 -13.64658 -13.45925 -13.22472 -12.99376 -12.56627 -12.16225
 -12.03812 -11.30286  -2.85755  -1.18688  -1.01703  -0.18474   0.10367   0.34795
   0.41781   0.76970   0.99048   1.34449   1.63778   2.06775   2.31251   2.45599
   2.54668   2.88413   2.97538   3.34020   3.42636   3.65639   3.83216   4.19309
   4.41478   4.53430   4.88808   4.98779  16.61674  16.78724  17.44080  18.38040
  18.73732  69.04996  69.18338  69.48721  69.72777  69.79885  69.97717  69.98209
  70.36380  70.63052  70.89736


              NET ATOMIC CHARGES AND DIPOLE CONTRIBUTIONS

  ATOM NO.   TYPE          CHARGE      No. of ELECS.   s-Pop       p-Pop       d-Pop       
    1          C          -0.401210        4.4012     1.09689     3.30432
    2          C           0.555138        3.4449     1.12169     2.32317
    3          C           0.667803        3.3322     1.11790     2.21430
    4          C           0.030423        3.9696     1.11165     2.85792
    5          O          -0.397402        6.3974     1.87288     4.52452
    6          C          -0.391256        4.3913     1.08170     3.30955
    7          C          -0.270325        4.2703     1.08601     3.18431
    8          C           0.159032        3.8410     1.12371     2.71725
    9          O          -0.538825        6.5388     1.66236     4.87647
   10          H           0.198995        0.8010     0.80101
   11          H           0.207337        0.7927     0.79266
   12          H           0.228813        0.7712     0.77119
   13          H           0.198747        0.8013     0.80125
   14         Al           0.486365        2.5136     0.21964     1.33923     0.95477
   15         Cl          -0.172417        7.1724     1.95488     5.21444     0.00310
   16         Cl          -0.191559        7.1916     1.95525     5.23310     0.00320
   17          H           0.294102        0.7059     0.70590
   18          C          -0.454251        4.4543     1.04317     3.41108
   19          H           0.252227        0.7478     0.74777
   20          H           0.261071        0.7389     0.73893
   21          H           0.277193        0.7228     0.72281
 DIPOLE           X         Y         Z       TOTAL
 POINT-CHG.    -4.188    -7.435    -3.909     9.386
 HYBRID        -0.125     0.253     0.301     0.412
 SUM           -4.313    -7.182    -3.609     9.122


          ATOMIC ORBITAL ELECTRON POPULATIONS

     Atom    s        px        py        pz      x^2-y^2     xz        z^2       yz        xy
    1  C   1.09689   1.09175   1.04587   1.16670
    2  C   1.12169   0.82644   0.73532   0.76141
    3  C   1.11790   0.76304   0.78501   0.66625
    4  C   1.11165   0.93464   1.04570   0.87759
    5  O   1.87288   1.72306   1.39556   1.40591
    6  C   1.08170   1.07860   1.15035   1.08061
    7  C   1.08601   1.04269   1.04450   1.09713
    8  C   1.12371   0.91725   0.92530   0.87471
    9  O   1.66236   1.67899   1.63046   1.56702
   10  H   0.80101
   11  H   0.79266
   12  H   0.77119
   13  H   0.80125
   14 Al   0.21964   0.39517   0.43715   0.50691   0.15548   0.19876   0.22330   0.19909   0.17814
   15 Cl   1.95488   1.81397   1.82219   1.57828   0.00045   0.00083   0.00027   0.00107   0.00047
   16 Cl   1.95525   1.77502   1.66884   1.78924   0.00097   0.00035   0.00072   0.00041   0.00076
   17  H   0.70590
   18  C   1.04317   1.20609   1.13546   1.06953
   19  H   0.74777
   20  H   0.73893
   21  H   0.72281
 ********************************************************************************

                 REACTION COORDINATE =       1.7000  ANGSTROMS 

 ********************************************************************************
 GEOMETRY TOO UNSTABLE FOR EXTRAPOLATION TO BE USED
 - THE LAST GEOMETRY IS BEING USED TO START THE NEXT CALCULATION
 CYCLE:     1 TIME:   0.047 TIME LEFT:  2.00D  GRAD.:    73.605 HEAT: -66.83534
 CYCLE:     2 TIME:   0.047 TIME LEFT:  2.00D  GRAD.:    15.458 HEAT: -67.76984
 CYCLE:     3 TIME:   0.047 TIME LEFT:  2.00D  GRAD.:     5.918 HEAT: -67.82227
 CYCLE:     4 TIME:   0.031 TIME LEFT:  2.00D  GRAD.:     2.936 HEAT: -67.85910
 CYCLE:     5 TIME:   0.035 TIME LEFT:  2.00D  GRAD.:     1.864 HEAT: -67.85041
 CYCLE:     6 TIME:   0.172 TIME LEFT:  2.00D  GRAD.:     1.348 HEAT: -67.85207
 CYCLE:     7 TIME:   0.211 TIME LEFT:  2.00D  GRAD.:    10.188 HEAT: -67.84573
 CYCLE:     8 TIME:   0.035 TIME LEFT:  2.00D  GRAD.:     6.164 HEAT: -67.83632
 CYCLE:     9 TIME:   0.035 TIME LEFT:  2.00D  GRAD.:     1.687 HEAT: -67.87238
 CYCLE:    10 TIME:   0.129 TIME LEFT:  2.00D  GRAD.:     1.174 HEAT: -67.87149
 CYCLE:    11 TIME:   0.203 TIME LEFT:  2.00D  GRAD.:     0.850 HEAT: -67.87086

     GRADIENT =  0.85002 IS LESS THAN CUTOFF =  1.00000



 -------------------------------------------------------------------------------
 PM7 CHARGE=1 EPS=8.2 EF
 ortho
 (in 1,1,2,2-tetrachloroethane (TeCA))


     GEOMETRY OPTIMISED USING EIGENVECTOR FOLLOWING (EF).     
     SCF FIELD WAS ACHIEVED                                   


                              PM7 CALCULATION
                                                       MOPAC2016 (Version: 22.066W)
                                                       Tue May 10 09:58:20 2022




          FINAL HEAT OF FORMATION =        -67.87086 KCAL/MOL =    -283.97169 KJ/MOL
          VAN DER WAALS AREA      =        226.39 SQUARE ANGSTROMS

          DIELECTRIC ENERGY       =         -2.30497 EV
          COSMO AREA              =        226.39 SQUARE ANGSTROMS
          COSMO VOLUME            =        243.18 CUBIC ANGSTROMS
          GRADIENT NORM           =          0.85002          =       0.18549 PER ATOM
          FOR REACTION COORDINATE =          1.70000 ANGSTROMS
          REACTION GRADIENT       =         47.99541 KCAL/ANGSTROM
          IONIZATION POTENTIAL    =         11.238618 EV
          HOMO LUMO ENERGIES (EV) =        -11.239 -2.843
          NO. OF FILLED LEVELS    =         34
          MOLECULAR WEIGHT        =        234.0375         POINT GROUP:  C1  

          MOLECULAR DIMENSIONS (Angstroms)

            Atom       Atom       Distance
           Cl    15    H    11     8.09127
            H    21    H    12     5.64526
            H    17   Cl    16     4.39609
          SCF CALCULATIONS        =         26
 
          WALL-CLOCK TIME         =          9.953 SECONDS
          COMPUTATION TIME        =         16.453 SECONDS




  ATOM    CHEMICAL      BOND LENGTH      BOND ANGLE     TWIST ANGLE 
 NUMBER    SYMBOL       (ANGSTROMS)      (DEGREES)       (DEGREES) 
   (I)                     NA:I           NB:NA:I       NC:NB:NA:I       NA    NB    NC 
     1       C          0.00000000       0.0000000       0.0000000        0     0     0
     2       C          1.70000000  +    0.0000000       0.0000000        1     0     0
     3       C          1.47679374  *  111.2565652  *    0.0000000        1     2     0
     4       C          1.47366306  *  109.7665426  *  127.1422208  *     1     2     3
     5       O          1.18521040  *  116.4496457  * -130.5562139  *     2     1     3
     6       C          1.41010042  *  122.4528649  *  134.0291818  *     3     1     2
     7       C          1.35334483  *  121.6167342  * -133.3928867  *     4     1     2
     8       C          1.37203164  *  118.9790450  *   -5.2061665  *     6     3     1
     9       O          1.27272986  *  117.5277235  *  -46.8680482  *     3     1     2
    10       H          1.09863002  *  116.2180457  *   47.8869647  *     4     1     2
    11       H          1.09664473  *  121.0342412  * -178.0599266  *     7     4     1
    12       H          1.09643687  *  119.0706321  *  175.7917420  *     6     3     1
    13       H          1.10236485  *  120.5208497  * -179.9913864  *     8     6     3
    14      Al          1.79515622  *  150.6254664  *   29.7867139  *     9     3     1
    15      Cl          2.02427867  *  116.4466262  * -111.4123810  *    14     9     3
    16      Cl          2.02952322  *  114.0480492  *   98.7779376  *    14     9     3
    17       H          1.13994436  *  102.2383149  * -117.6114653  *     1     2     3
    18       C          1.49015665  *  116.5071780  *   50.4428700  *     2     1     3
    19       H          1.16528823  *  112.8484343  *   38.6169723  *    18     2     1
    20       H          1.17073519  *  110.2938827  *  -98.4568683  *    18     2     1
    21       H          1.13783847  *  109.2966310  *  151.2524905  *    18     2     1

                             CARTESIAN COORDINATES

   1    C        0.000000000     0.000000000     0.000000000
   2    C        1.700000000     0.000000000     0.000000000
   3    C       -0.535403932     1.376322043     0.000000000
   4    C       -0.498375815    -0.837363297    -1.105498562
   5    O        2.227905903    -0.689953049    -0.806228155
   6    C       -1.580468455     1.781685442    -0.855513788
   7    C       -1.483405420    -0.411256807    -1.929933007
   8    C       -2.049932671     0.899536629    -1.795666770
   9    O       -0.029529541     2.204280679     0.823660669
  10    H       -0.040523012    -1.830939491    -1.206320606
  11    H       -1.868832683    -1.054617897    -2.730034247
  12    H       -1.982612438     2.797335481    -0.761126140
  13    H       -2.865961179     1.189847190    -2.477594571
  14   Al        1.360516723     2.793645521     1.794745786
  15   Cl        1.204881116     2.597058107     3.803435677
  16   Cl        2.361704814     4.343665803     0.949746354
  17    H       -0.241643546    -0.516327119     0.987161510
  18    C        2.365071704     0.849241650     1.028122114
  19    H        1.816176626     0.828868515     2.055835976
  20    H        2.690807738     1.872142216     0.561012533
  21    H        3.375463307     0.397694285     1.292489584


           Empirical Formula: C8 H8 O2 Al Cl2  =    21 atoms



      MOLECULAR POINT GROUP   :   C1  


                  EIGENVALUES  
 -33.87835 -33.38371 -31.78330 -29.79255 -27.82130 -27.17197 -27.03159 -26.28026
 -23.89124 -22.61534 -21.46365 -20.21704 -18.99824 -18.46500 -18.26263 -17.89498
 -17.19568 -16.66004 -16.33218 -16.06336 -15.57707 -15.27522 -14.91637 -14.67310
 -14.20353 -14.05155 -13.65733 -13.45938 -13.20948 -12.98406 -12.56179 -12.06431
 -12.02337 -11.23862  -2.84281  -1.16603  -0.99499  -0.23607  -0.03294   0.30365
   0.42513   0.70128   1.10969   1.42905   1.62620   2.07705   2.43730   2.49291
   2.53885   2.84657   3.03427   3.31984   3.48054   3.84091   3.89097   4.11349
   4.45961   4.57475   4.92904   5.02829  16.63543  16.80070  17.43692  18.41802
  18.78321  69.05774  69.19691  69.50090  69.75073  69.80551  69.97165  69.99156
  70.36929  70.63648  70.91240


              NET ATOMIC CHARGES AND DIPOLE CONTRIBUTIONS

  ATOM NO.   TYPE          CHARGE      No. of ELECS.   s-Pop       p-Pop       d-Pop       
    1          C          -0.410628        4.4106     1.10533     3.30530
    2          C           0.567361        3.4326     1.13754     2.29510
    3          C           0.661239        3.3388     1.11630     2.22246
    4          C           0.028038        3.9720     1.11036     2.86160
    5          O          -0.371616        6.3716     1.86973     4.50188
    6          C          -0.390300        4.3903     1.08199     3.30831
    7          C          -0.271761        4.2718     1.08586     3.18590
    8          C           0.153342        3.8467     1.12309     2.72357
    9          O          -0.542368        6.5424     1.65945     4.88292
   10          H           0.196444        0.8036     0.80356
   11          H           0.205527        0.7945     0.79447
   12          H           0.226746        0.7733     0.77325
   13          H           0.197785        0.8022     0.80222
   14         Al           0.486946        2.5131     0.21934     1.33825     0.95547
   15         Cl          -0.176732        7.1767     1.95503     5.21858     0.00312
   16         Cl          -0.190842        7.1908     1.95530     5.23234     0.00320
   17          H           0.281060        0.7189     0.71894
   18          C          -0.450713        4.4507     1.04098     3.40973
   19          H           0.255691        0.7443     0.74431
   20          H           0.263801        0.7362     0.73620
   21          H           0.280978        0.7190     0.71902
 DIPOLE           X         Y         Z       TOTAL
 POINT-CHG.    -3.242    -7.318    -4.148     9.015
 HYBRID        -0.235     0.248     0.260     0.429
 SUM           -3.477    -7.070    -3.888     8.786


          ATOMIC ORBITAL ELECTRON POPULATIONS

     Atom    s        px        py        pz      x^2-y^2     xz        z^2       yz        xy
    1  C   1.10533   1.11241   1.03788   1.15500
    2  C   1.13754   0.80706   0.72955   0.75849
    3  C   1.11630   0.75127   0.79849   0.67270
    4  C   1.11036   0.92623   1.04930   0.88606
    5  O   1.86973   1.71882   1.38828   1.39477
    6  C   1.08199   1.08552   1.14908   1.07371
    7  C   1.08586   1.04616   1.04170   1.09804
    8  C   1.12309   0.90522   0.92951   0.88884
    9  O   1.65945   1.67511   1.64237   1.56544
   10  H   0.80356
   11  H   0.79447
   12  H   0.77325
   13  H   0.80222
   14 Al   0.21934   0.39698   0.43745   0.50382   0.15536   0.19951   0.22225   0.19688   0.18146
   15 Cl   1.95503   1.81543   1.82301   1.58014   0.00043   0.00085   0.00030   0.00106   0.00048
   16 Cl   1.95530   1.77300   1.66567   1.79368   0.00097   0.00036   0.00069   0.00045   0.00073
   17  H   0.71894
   18  C   1.04098   1.20895   1.13183   1.06895
   19  H   0.74431
   20  H   0.73620
   21  H   0.71902
 ********************************************************************************

                 REACTION COORDINATE =       1.8000  ANGSTROMS 

 ********************************************************************************
 GEOMETRY TOO UNSTABLE FOR EXTRAPOLATION TO BE USED
 - THE LAST GEOMETRY IS BEING USED TO START THE NEXT CALCULATION
 CYCLE:     1 TIME:   0.043 TIME LEFT:  2.00D  GRAD.:    71.715 HEAT: -61.88118
 CYCLE:     2 TIME:   0.039 TIME LEFT:  2.00D  GRAD.:    46.783 HEAT: -62.51004
 CYCLE:     3 TIME:   0.027 TIME LEFT:  2.00D  GRAD.:    10.111 HEAT: -62.71412
 CYCLE:     4 TIME:   0.031 TIME LEFT:  2.00D  GRAD.:     8.004 HEAT: -62.80493
 CYCLE:     5 TIME:   0.199 TIME LEFT:  2.00D  GRAD.:     4.552 HEAT: -62.80559
 CYCLE:     6 TIME:   0.031 TIME LEFT:  2.00D  GRAD.:     3.576 HEAT: -62.81156
 CYCLE:     7 TIME:   0.234 TIME LEFT:  2.00D  GRAD.:     2.827 HEAT: -62.81394
 CYCLE:     8 TIME:   0.086 TIME LEFT:  2.00D  GRAD.:     6.452 HEAT: -62.81800
 CYCLE:     9 TIME:   0.039 TIME LEFT:  2.00D  GRAD.:     5.417 HEAT: -62.83380
 CYCLE:    10 TIME:   0.047 TIME LEFT:  2.00D  GRAD.:     4.475 HEAT: -62.90669
 CYCLE:    11 TIME:   0.039 TIME LEFT:  2.00D  GRAD.:     7.213 HEAT: -63.01996
 CYCLE:    12 TIME:   0.039 TIME LEFT:  2.00D  GRAD.:     4.284 HEAT: -63.05741
 CYCLE:    13 TIME:   0.039 TIME LEFT:  2.00D  GRAD.:     5.602 HEAT: -63.10905
 CYCLE:    14 TIME:   0.047 TIME LEFT:  2.00D  GRAD.:     7.637 HEAT: -63.12794
 CYCLE:    15 TIME:   0.109 TIME LEFT:  2.00D  GRAD.:     4.176 HEAT: -63.13650
 CYCLE:    16 TIME:   0.152 TIME LEFT:  2.00D  GRAD.:     1.786 HEAT: -63.12936
 CYCLE:    17 TIME:   0.129 TIME LEFT:  2.00D  GRAD.:    11.731 HEAT: -63.12276
 CYCLE:    18 TIME:   0.047 TIME LEFT:  2.00D  GRAD.:     1.477 HEAT: -63.15622
 CYCLE:    19 TIME:   0.051 TIME LEFT:  2.00D  GRAD.:     1.735 HEAT: -63.14901
 CYCLE:    20 TIME:   0.035 TIME LEFT:  2.00D  GRAD.:     1.432 HEAT: -63.14816
 CYCLE:    21 TIME:   0.047 TIME LEFT:  2.00D  GRAD.:     3.085 HEAT: -63.14721
 CYCLE:    22 TIME:   0.035 TIME LEFT:  2.00D  GRAD.:     0.827 HEAT: -63.15655

     GRADIENT =  0.82694 IS LESS THAN CUTOFF =  1.00000



 -------------------------------------------------------------------------------
 PM7 CHARGE=1 EPS=8.2 EF
 ortho
 (in 1,1,2,2-tetrachloroethane (TeCA))


     GEOMETRY OPTIMISED USING EIGENVECTOR FOLLOWING (EF).     
     SCF FIELD WAS ACHIEVED                                   


                              PM7 CALCULATION
                                                       MOPAC2016 (Version: 22.066W)
                                                       Tue May 10 09:58:21 2022




          FINAL HEAT OF FORMATION =        -63.15655 KCAL/MOL =    -264.24700 KJ/MOL
          VAN DER WAALS AREA      =        226.22 SQUARE ANGSTROMS

          DIELECTRIC ENERGY       =         -2.29069 EV
          COSMO AREA              =        226.22 SQUARE ANGSTROMS
          COSMO VOLUME            =        244.09 CUBIC ANGSTROMS
          GRADIENT NORM           =          0.82694          =       0.18045 PER ATOM
          FOR REACTION COORDINATE =          1.80000 ANGSTROMS
          REACTION GRADIENT       =         46.86649 KCAL/ANGSTROM
          IONIZATION POTENTIAL    =         11.152551 EV
          HOMO LUMO ENERGIES (EV) =        -11.153 -2.854
          NO. OF FILLED LEVELS    =         34
          MOLECULAR WEIGHT        =        234.0375         POINT GROUP:  C1  

          MOLECULAR DIMENSIONS (Angstroms)

            Atom       Atom       Distance
           Cl    15    H    11     8.06187
            H    21    H    12     5.52283
            H    17   Cl    16     4.34650
          SCF CALCULATIONS        =         40
 
          WALL-CLOCK TIME         =         11.547 SECONDS
          COMPUTATION TIME        =         19.562 SECONDS




  ATOM    CHEMICAL      BOND LENGTH      BOND ANGLE     TWIST ANGLE 
 NUMBER    SYMBOL       (ANGSTROMS)      (DEGREES)       (DEGREES) 
   (I)                     NA:I           NB:NA:I       NC:NB:NA:I       NA    NB    NC 
     1       C          0.00000000       0.0000000       0.0000000        0     0     0
     2       C          1.80000000  +    0.0000000       0.0000000        1     0     0
     3       C          1.46430945  *  107.6957669  *    0.0000000        1     2     0
     4       C          1.46329338  *  108.4363051  *  124.6462570  *     1     2     3
     5       O          1.17587288  *  114.3165618  * -126.7233795  *     2     1     3
     6       C          1.40938606  *  122.7454468  *  124.6093142  *     3     1     2
     7       C          1.35604857  *  121.5259678  * -123.2958971  *     4     1     2
     8       C          1.37325206  *  118.7001779  *   -2.2275879  *     6     3     1
     9       O          1.27915390  *  117.2959288  *  -54.5512448  *     3     1     2
    10       H          1.09813864  *  116.5600711  *   57.2215774  *     4     1     2
    11       H          1.09602288  *  120.9897177  * -179.4914673  *     7     4     1
    12       H          1.09542767  *  119.3235145  *  178.2485093  *     6     3     1
    13       H          1.10191384  *  120.4395766  * -179.9358999  *     8     6     3
    14      Al          1.78592088  *  149.7934459  *   36.6474090  *     9     3     1
    15      Cl          2.02612669  *  116.9063012  * -110.8796030  *    14     9     3
    16      Cl          2.02956842  *  115.4286983  *   98.0477948  *    14     9     3
    17       H          1.12569043  *   99.9051869  * -118.5876991  *     1     2     3
    18       C          1.47977942  *  114.1718915  *   54.2762107  *     2     1     3
    19       H          1.16553020  *  112.7717399  *   39.5377698  *    18     2     1
    20       H          1.17132219  *  110.5971714  *  -97.8066281  *    18     2     1
    21       H          1.14064529  *  109.2132948  *  152.0319305  *    18     2     1

                             CARTESIAN COORDINATES

   1    C        0.000000000     0.000000000     0.000000000
   2    C        1.800000000     0.000000000     0.000000000
   3    C       -0.445095421     1.395024100     0.000000000
   4    C       -0.462766858    -0.789197861    -1.142033756
   5    O        2.284198335    -0.640738424    -0.858884901
   6    C       -1.318249267     1.916646723    -0.975644021
   7    C       -1.288985252    -0.262693652    -2.079596662
   8    C       -1.734668830     1.095582511    -1.994599143
   9    O        0.004673932     2.154264034     0.926011310
  10    H       -0.113563662    -1.829031587    -1.194105134
  11    H       -1.636857987    -0.864332470    -2.927111525
  12    H       -1.638150396     2.961968504    -0.905448459
  13    H       -2.416404137     1.473945848    -2.773246854
  14   Al        1.340996655     2.651119997     2.001599117
  15   Cl        1.125767888     2.251177884     3.976165460
  16   Cl        2.405582906     4.263776150     1.380999238
  17    H       -0.193639332    -0.530617447     0.973718583
  18    C        2.405933435     0.788255610     1.096013181
  19    H        1.834528624     0.671315427     2.105112871
  20    H        2.710536897     1.854041390     0.717446061
  21    H        3.427542675     0.350669540     1.352732243


           Empirical Formula: C8 H8 O2 Al Cl2  =    21 atoms



      MOLECULAR POINT GROUP   :   C1  


                  EIGENVALUES  
 -34.11206 -33.40494 -31.70161 -29.92837 -27.70220 -27.08758 -27.05637 -26.26082
 -23.66626 -22.58547 -21.59301 -20.15837 -18.94430 -18.50776 -18.18709 -17.85533
 -17.24482 -16.67688 -16.29445 -16.05489 -15.64611 -15.38747 -14.90472 -14.67140
 -14.18759 -14.03346 -13.69329 -13.49141 -13.19404 -12.98394 -12.55180 -12.01577
 -11.90736 -11.15255  -2.85387  -1.23256  -0.97865  -0.48016  -0.08555   0.28819
   0.43086   0.74010   1.23457   1.34337   1.68087   2.11924   2.38793   2.57552
   2.70036   2.78315   3.11312   3.21358   3.54637   3.95447   3.99858   4.12216
   4.53152   4.62677   4.98033   5.07808  16.66413  16.78621  17.40787  18.47201
  18.83035  69.07409  69.22332  69.51641  69.77818  69.81800  69.98124  70.01457
  70.39261  70.66288  70.94595


              NET ATOMIC CHARGES AND DIPOLE CONTRIBUTIONS

  ATOM NO.   TYPE          CHARGE      No. of ELECS.   s-Pop       p-Pop       d-Pop       
    1          C          -0.432284        4.4323     1.11016     3.32212
    2          C           0.581184        3.4188     1.15144     2.26738
    3          C           0.644376        3.3556     1.11330     2.24232
    4          C           0.024905        3.9751     1.10864     2.86645
    5          O          -0.322754        6.3228     1.86712     4.45563
    6          C          -0.385622        4.3856     1.08225     3.30338
    7          C          -0.272268        4.2723     1.08571     3.18656
    8          C           0.142303        3.8577     1.12156     2.73614
    9          O          -0.546344        6.5463     1.65845     4.88790
   10          H           0.192764        0.8072     0.80724
   11          H           0.203288        0.7967     0.79671
   12          H           0.223922        0.7761     0.77608
   13          H           0.196340        0.8037     0.80366
   14         Al           0.488100        2.5119     0.21865     1.33763     0.95562
   15         Cl          -0.182882        7.1829     1.95524     5.22450     0.00315
   16         Cl          -0.191596        7.1916     1.95540     5.23301     0.00319
   17          H           0.266407        0.7336     0.73359
   18          C          -0.445398        4.4454     1.03901     3.40639
   19          H           0.260334        0.7397     0.73967
   20          H           0.268375        0.7316     0.73162
   21          H           0.286851        0.7131     0.71315
 DIPOLE           X         Y         Z       TOTAL
 POINT-CHG.    -1.554    -7.006    -5.091     8.799
 HYBRID        -0.433     0.236     0.204     0.534
 SUM           -1.988    -6.770    -4.887     8.583


          ATOMIC ORBITAL ELECTRON POPULATIONS

     Atom    s        px        py        pz      x^2-y^2     xz        z^2       yz        xy
    1  C   1.11016   1.14475   1.03218   1.14519
    2  C   1.15144   0.77915   0.71598   0.77224
    3  C   1.11330   0.70656   0.82841   0.70735
    4  C   1.10864   0.89186   1.06808   0.90651
    5  O   1.86712   1.69530   1.38142   1.37891
    6  C   1.08225   1.11660   1.14518   1.04159
    7  C   1.08571   1.06007   1.03126   1.09522
    8  C   1.12156   0.84203   0.95031   0.94381
    9  O   1.65845   1.67100   1.67791   1.53899
   10  H   0.80724
   11  H   0.79671
   12  H   0.77608
   13  H   0.80366
   14 Al   0.21865   0.40022   0.44269   0.49472   0.15769   0.20263   0.21691   0.19291   0.18548
   15 Cl   1.95524   1.81627   1.82022   1.58801   0.00038   0.00089   0.00042   0.00098   0.00048
   16 Cl   1.95540   1.76733   1.65529   1.81039   0.00093   0.00043   0.00055   0.00065   0.00063
   17  H   0.73359
   18  C   1.03901   1.21300   1.13147   1.06192
   19  H   0.73967
   20  H   0.73162
   21  H   0.71315
 ********************************************************************************

                 REACTION COORDINATE =       1.9000  ANGSTROMS 

 ********************************************************************************
 GEOMETRY TOO UNSTABLE FOR EXTRAPOLATION TO BE USED
 - THE LAST GEOMETRY IS BEING USED TO START THE NEXT CALCULATION
 CYCLE:     1 TIME:   0.043 TIME LEFT:  2.00D  GRAD.:    69.167 HEAT: -57.54562
 CYCLE:     2 TIME:   0.043 TIME LEFT:  2.00D  GRAD.:    19.680 HEAT: -58.77448
 CYCLE:     3 TIME:   0.047 TIME LEFT:  2.00D  GRAD.:     6.138 HEAT: -58.83558
 CYCLE:     4 TIME:   0.043 TIME LEFT:  2.00D  GRAD.:     3.065 HEAT: -58.91172
 CYCLE:     5 TIME:   0.031 TIME LEFT:  2.00D  GRAD.:     2.655 HEAT: -59.01690
 CYCLE:     6 TIME:   0.215 TIME LEFT:  2.00D  GRAD.:     2.220 HEAT: -59.01902
 CYCLE:     7 TIME:   0.398 TIME LEFT:  2.00D  GRAD.:     1.992 HEAT: -59.02053

     TRUST RADIUS NOW LESS THAN  0.00010 OPTIMIZATION TERMINATING
      THE GEOMETRY MAY NOT BE COMPLETELY OPTIMIZED
      (TO CONTINUE, ADD 'LET DDMIN=0.0' TO THE KEYWORD LINE)

 -------------------------------------------------------------------------------
 PM7 CHARGE=1 EPS=8.2 EF
 ortho
 (in 1,1,2,2-tetrachloroethane (TeCA))


     GEOMETRY OPTIMISED USING EIGENVECTOR FOLLOWING (EF).     
     SCF FIELD WAS ACHIEVED                                   


                              PM7 CALCULATION
                                                       MOPAC2016 (Version: 22.066W)
                                                       Tue May 10 09:58:23 2022




          FINAL HEAT OF FORMATION =        -59.02075 KCAL/MOL =    -246.94281 KJ/MOL
          VAN DER WAALS AREA      =        225.97 SQUARE ANGSTROMS

          DIELECTRIC ENERGY       =         -2.30275 EV
          COSMO AREA              =        225.97 SQUARE ANGSTROMS
          COSMO VOLUME            =        244.94 CUBIC ANGSTROMS
          GRADIENT NORM           =          1.99236          =       0.43477 PER ATOM
          FOR REACTION COORDINATE =          1.90000 ANGSTROMS
          REACTION GRADIENT       =         36.84067 KCAL/ANGSTROM
          IONIZATION POTENTIAL    =         10.994255 EV
          HOMO LUMO ENERGIES (EV) =        -10.994 -2.818
          NO. OF FILLED LEVELS    =         34
          MOLECULAR WEIGHT        =        234.0375         POINT GROUP:  C1  

          MOLECULAR DIMENSIONS (Angstroms)

            Atom       Atom       Distance
           Cl    15    H    11     8.06724
            H    21    H    12     5.44439
            H    17   Cl    16     4.31013
          SCF CALCULATIONS        =         31
 
          WALL-CLOCK TIME         =         12.742 SECONDS
          COMPUTATION TIME        =         21.875 SECONDS




  ATOM    CHEMICAL      BOND LENGTH      BOND ANGLE     TWIST ANGLE 
 NUMBER    SYMBOL       (ANGSTROMS)      (DEGREES)       (DEGREES) 
   (I)                     NA:I           NB:NA:I       NC:NB:NA:I       NA    NB    NC 
     1       C          0.00000000       0.0000000       0.0000000        0     0     0
     2       C          1.90000000  +    0.0000000       0.0000000        1     0     0
     3       C          1.44824229  *  106.0457542  *    0.0000000        1     2     0
     4       C          1.45136476  *  107.7915610  *  124.0049350  *     1     2     3
     5       O          1.16629964  *  111.1698650  * -126.8472782  *     2     1     3
     6       C          1.40887936  *  122.9063242  *  121.2871615  *     3     1     2
     7       C          1.36068102  *  121.3325041  * -119.6845462  *     4     1     2
     8       C          1.37504880  *  118.4099156  *   -1.0504786  *     6     3     1
     9       O          1.28723135  *  117.4170364  *  -56.9397244  *     3     1     2
    10       H          1.09764369  *  117.1343263  *   60.7879602  *     4     1     2
    11       H          1.09508407  *  120.9427179  * -179.7270605  *     7     4     1
    12       H          1.09403388  *  119.5554501  *  178.9099546  *     6     3     1
    13       H          1.10115917  *  120.3503945  *  179.4736823  *     8     6     3
    14      Al          1.77167522  *  150.2712391  *   40.1295421  *     9     3     1
    15      Cl          2.02715753  *  117.9969231  * -110.2157068  *    14     9     3
    16      Cl          2.03028077  *  116.5431499  *   96.4165447  *    14     9     3
    17       H          1.11690876  *   95.8190266  * -118.9507617  *     1     2     3
    18       C          1.46838575  *  112.0705588  *   54.3351226  *     2     1     3
    19       H          1.16625714  *  113.0225901  *   41.0890855  *    18     2     1
    20       H          1.17185089  *  110.5025458  *  -96.3718214  *    18     2     1
    21       H          1.14401101  *  109.1359406  *  153.4119889  *    18     2     1

                             CARTESIAN COORDINATES

   1    C        0.000000000     0.000000000     0.000000000
   2    C        1.900000000     0.000000000     0.000000000
   3    C       -0.400301256     1.391820617     0.000000000
   4    C       -0.443471854    -0.772876644    -1.145623885
   5    O        2.321190640    -0.652210810    -0.870330019
   6    C       -1.202210153     1.957609315    -1.010824573
   7    C       -1.207714994    -0.214261649    -2.123036061
   8    C       -1.603629264     1.155591309    -2.053124446
   9    O        0.034920929     2.133745998     0.957649692
  10    H       -0.142498071    -1.827726869    -1.184706448
  11    H       -1.542503793    -0.804558312    -2.982498351
  12    H       -1.487049520     3.011973844    -0.946855061
  13    H       -2.238079815     1.562490212    -2.855905420
  14   Al        1.338160281     2.625245994     2.052559747
  15   Cl        1.155693042     2.161781026     4.017572104
  16   Cl        2.427751295     4.245575744     1.496355709
  17    H       -0.113239658    -0.537862506     0.972299271
  18    C        2.451743183     0.793396636     1.105557748
  19    H        1.873425385     0.643938390     2.107239575
  20    H        2.718853037     1.874722612     0.741386116
  21    H        3.488332851     0.391282329     1.374903506


           Empirical Formula: C8 H8 O2 Al Cl2  =    21 atoms



      MOLECULAR POINT GROUP   :   C1  


                  EIGENVALUES  
 -34.61725 -33.23843 -31.58287 -30.09604 -27.54863 -27.08090 -26.98104 -26.23909
 -23.45028 -22.52718 -21.77430 -20.08108 -18.97704 -18.52680 -18.08792 -17.78113
 -17.31791 -16.71445 -16.29037 -16.03965 -15.71516 -15.47483 -14.84516 -14.66443
 -14.16350 -14.02232 -13.69707 -13.51257 -13.13086 -12.98382 -12.54874 -11.98349
 -11.72185 -10.99425  -2.81820  -1.34962  -0.94426  -0.72733  -0.09111   0.29429
   0.45266   0.82425   1.08011   1.39875   1.86819   2.23928   2.30032   2.67908
   2.74349   2.94996   3.03182   3.28566   3.65996   3.85698   4.10571   4.32355
   4.65158   4.71321   5.06825   5.16199  16.70277  16.77919  17.38942  18.56102
  18.93593  69.09084  69.24849  69.53637  69.79892  69.84025  70.00178  70.04600
  70.42686  70.69519  70.99017


              NET ATOMIC CHARGES AND DIPOLE CONTRIBUTIONS

  ATOM NO.   TYPE          CHARGE      No. of ELECS.   s-Pop       p-Pop       d-Pop       
    1          C          -0.466901        4.4669     1.10941     3.35749
    2          C           0.601786        3.3982     1.16218     2.23603
    3          C           0.621993        3.3780     1.10764     2.27036
    4          C           0.024957        3.9750     1.10663     2.86842
    5          O          -0.257288        6.2573     1.86548     4.39181
    6          C          -0.376833        4.3768     1.08255     3.29428
    7          C          -0.274679        4.2747     1.08501     3.18967
    8          C           0.121582        3.8784     1.11823     2.76018
    9          O          -0.552804        6.5528     1.65436     4.89845
   10          H           0.187972        0.8120     0.81203
   11          H           0.199895        0.8001     0.80010
   12          H           0.219665        0.7803     0.78034
   13          H           0.193699        0.8063     0.80630
   14         Al           0.488580        2.5114     0.21764     1.33839     0.95539
   15         Cl          -0.187168        7.1872     1.95538     5.22864     0.00315
   16         Cl          -0.195115        7.1951     1.95557     5.23634     0.00320
   17          H           0.254859        0.7451     0.74514
   18          C          -0.436800        4.4368     1.03699     3.39981
   19          H           0.266117        0.7339     0.73388
   20          H           0.272562        0.7274     0.72744
   21          H           0.293921        0.7061     0.70608
 DIPOLE           X         Y         Z       TOTAL
 POINT-CHG.     0.226    -7.180    -5.315     8.936
 HYBRID        -0.636     0.222     0.157     0.692
 SUM           -0.410    -6.957    -5.158     8.671


          ATOMIC ORBITAL ELECTRON POPULATIONS

     Atom    s        px        py        pz      x^2-y^2     xz        z^2       yz        xy
    1  C   1.10941   1.18981   1.03050   1.13718
    2  C   1.16218   0.74473   0.71613   0.77517
    3  C   1.10764   0.70446   0.84326   0.72265
    4  C   1.10663   0.87786   1.07278   0.91778
    5  O   1.86548   1.66052   1.37132   1.35996
    6  C   1.08255   1.12327   1.13996   1.03105
    7  C   1.08501   1.06649   1.02915   1.09404
    8  C   1.11823   0.83567   0.96025   0.96426
    9  O   1.65436   1.67554   1.68652   1.53639
   10  H   0.81203
   11  H   0.80010
   12  H   0.78034
   13  H   0.80630
   14 Al   0.21764   0.40152   0.44306   0.49382   0.15591   0.20248   0.21672   0.19239   0.18788
   15 Cl   1.95538   1.81850   1.81869   1.59144   0.00037   0.00090   0.00044   0.00096   0.00048
   16 Cl   1.95557   1.76646   1.65463   1.81525   0.00092   0.00045   0.00051   0.00072   0.00060
   17  H   0.74514
   18  C   1.03699   1.21845   1.12688   1.05448
   19  H   0.73388
   20  H   0.72744
   21  H   0.70608
 ********************************************************************************

                 REACTION COORDINATE =       2.0000  ANGSTROMS 

 ********************************************************************************
 CYCLE:     1 TIME:   0.035 TIME LEFT:  2.00D  GRAD.:    47.025 HEAT: -55.64671
 CYCLE:     2 TIME:   0.035 TIME LEFT:  2.00D  GRAD.:    45.878 HEAT: -55.65715
 CYCLE:     3 TIME:   0.035 TIME LEFT:  2.00D  GRAD.:    44.227 HEAT: -55.66549
 CYCLE:     4 TIME:   0.051 TIME LEFT:  2.00D  GRAD.:    42.215 HEAT: -55.67581
 CYCLE:     5 TIME:   0.027 TIME LEFT:  2.00D  GRAD.:    39.685 HEAT: -55.68950
 CYCLE:     6 TIME:   0.039 TIME LEFT:  2.00D  GRAD.:    36.441 HEAT: -55.70539
 CYCLE:     7 TIME:   0.043 TIME LEFT:  2.00D  GRAD.:    30.153 HEAT: -55.73375
 CYCLE:     8 TIME:   0.035 TIME LEFT:  2.00D  GRAD.:    19.331 HEAT: -55.76835
 CYCLE:     9 TIME:   0.035 TIME LEFT:  2.00D  GRAD.:     5.072 HEAT: -55.84000
 CYCLE:    10 TIME:   0.031 TIME LEFT:  2.00D  GRAD.:     4.671 HEAT: -55.84385
 CYCLE:    11 TIME:   0.039 TIME LEFT:  2.00D  GRAD.:     4.559 HEAT: -55.85200
 CYCLE:    12 TIME:   0.078 TIME LEFT:  2.00D  GRAD.:    29.704 HEAT: -55.96616
 CYCLE:    13 TIME:   0.086 TIME LEFT:  2.00D  GRAD.:    16.387 HEAT: -56.01561
 CYCLE:    14 TIME:   0.039 TIME LEFT:  2.00D  GRAD.:    13.586 HEAT: -56.02800
 CYCLE:    15 TIME:   0.035 TIME LEFT:  2.00D  GRAD.:     6.896 HEAT: -56.15012
 CYCLE:    16 TIME:   0.047 TIME LEFT:  2.00D  GRAD.:     7.996 HEAT: -56.20240
 CYCLE:    17 TIME:   0.031 TIME LEFT:  2.00D  GRAD.:     5.196 HEAT: -56.23651
 CYCLE:    18 TIME:   0.039 TIME LEFT:  2.00D  GRAD.:     4.012 HEAT: -56.23936
 CYCLE:    19 TIME:   0.047 TIME LEFT:  2.00D  GRAD.:     3.116 HEAT: -56.24536
 CYCLE:    20 TIME:   0.105 TIME LEFT:  2.00D  GRAD.:     3.340 HEAT: -56.25205
 CYCLE:    21 TIME:   0.184 TIME LEFT:  2.00D  GRAD.:     1.144 HEAT: -56.25290
 CYCLE:    22 TIME:   0.270 TIME LEFT:  2.00D  GRAD.:     1.018 HEAT: -56.25460
 CYCLE:    23 TIME:   0.293 TIME LEFT:  2.00D  GRAD.:     0.907 HEAT: -56.25127

     GRADIENT =  0.90715 IS LESS THAN CUTOFF =  1.00000



 -------------------------------------------------------------------------------
 PM7 CHARGE=1 EPS=8.2 EF
 ortho
 (in 1,1,2,2-tetrachloroethane (TeCA))


     GEOMETRY OPTIMISED USING EIGENVECTOR FOLLOWING (EF).     
     SCF FIELD WAS ACHIEVED                                   


                              PM7 CALCULATION
                                                       MOPAC2016 (Version: 22.066W)
[...]
   7    C       -1.187385951     0.087941068    -2.111198473
   8    C       -1.194798987     1.485748599    -2.071415992
   9    O        0.632698667     2.018619534     0.978708188
  10    H       -0.642607835    -1.739325582    -1.103218261
  11    H       -1.645522051    -0.431144425    -2.955195302
  12    H       -0.590717713     3.252867760    -0.962726590
  13    H       -1.668112496     2.050467506    -2.881554088
  14   Al        1.864228017     2.488027592     2.060380341
  15   Cl        1.903018811     2.032586294     4.045916982
  16   Cl        3.183472183     3.934965964     1.479852752
  17    H        0.301083469    -0.574206144     0.874320900
  18    C        2.926619349     0.480417642     1.269561024
  19    H        2.147868080     0.357301215     2.127011578
  20    H        3.515503228     1.491023168     1.197382156
  21    H        3.773066370    -0.198763783     1.673442574


           Empirical Formula: C8 H8 O2 Al Cl2  =    21 atoms



      MOLECULAR POINT GROUP   :   C1  


                  EIGENVALUES  
 -37.50854 -32.24839 -31.02379 -30.91629 -27.16766 -26.91324 -26.53744 -26.10293
 -23.21041 -22.32646 -22.13730 -19.72456 -19.38931 -19.23501 -18.46138 -17.48889
 -17.32477 -16.94737 -16.71498 -16.13296 -15.66503 -15.31665 -14.67461 -14.43765
 -14.02414 -13.91100 -13.67898 -13.35494 -12.91673 -12.76218 -12.54625 -11.81786
 -11.03134 -10.34831  -2.37188  -2.25535  -0.97425  -0.71839  -0.67738  -0.01864
   0.42482   0.60107   1.49593   1.74635   1.87435   2.10251   2.34777   2.53340
   3.24327   3.38605   3.47308   4.01263   4.03564   4.26921   4.85598   4.90175
   5.24297   5.30657   5.50086   5.53598  16.57862  17.16376  17.46372  19.03335
  19.59852  69.23096  69.40113  69.71799  69.94161  70.03042  70.17200  70.25058
  70.67900  70.93652  71.26053


              NET ATOMIC CHARGES AND DIPOLE CONTRIBUTIONS

  ATOM NO.   TYPE          CHARGE      No. of ELECS.   s-Pop       p-Pop       d-Pop       
    1          C          -0.420434        4.4204     1.08506     3.33537
    2          C           0.624515        3.3755     1.19042     2.18507
    3          C           0.402348        3.5977     1.07621     2.52145
    4          C          -0.050536        4.0505     1.09277     2.95776
    5          O           0.098462        5.9015     1.86750     4.03404
    6          C          -0.283612        4.2836     1.08384     3.19977
    7          C          -0.232256        4.2323     1.08362     3.14864
    8          C          -0.043334        4.0433     1.09471     2.94863
    9          O          -0.558905        6.5589     1.62825     4.93066
   10          H           0.170975        0.8290     0.82902
   11          H           0.181282        0.8187     0.81872
   12          H           0.196752        0.8032     0.80325
   13          H           0.179947        0.8201     0.82005
   14         Al           0.472769        2.5272     0.21379     1.36090     0.95255
   15         Cl          -0.206763        7.2068     1.95653     5.24705     0.00319
   16         Cl          -0.220940        7.2209     1.95679     5.26091     0.00324
   17          H           0.190266        0.8097     0.80973
   18          C          -0.427285        4.4273     1.02977     3.39751
   19          H           0.299867        0.7001     0.70013
   20          H           0.297620        0.7024     0.70238
   21          H           0.329261        0.6707     0.67074
 DIPOLE           X         Y         Z       TOTAL
 POINT-CHG.     6.516   -10.349    -4.733    13.114
 HYBRID        -0.808     0.375     0.010     0.891
 SUM            5.707    -9.974    -4.724    12.425


          ATOMIC ORBITAL ELECTRON POPULATIONS

     Atom    s        px        py        pz      x^2-y^2     xz        z^2       yz        xy
    1  C   1.08506   1.20095   1.02505   1.10937
    2  C   1.19042   0.65702   0.68450   0.84355
    3  C   1.07621   0.84690   0.88818   0.78637
    4  C   1.09277   0.91206   1.09016   0.95555
    5  O   1.86750   1.42931   1.37654   1.22819
    6  C   1.08384   1.07827   1.11176   1.00974
    7  C   1.08362   1.06386   1.01337   1.07140
    8  C   1.09471   0.93140   1.00379   1.01343
    9  O   1.62825   1.65008   1.72294   1.55764
   10  H   0.82902
   11  H   0.81872
   12  H   0.80325
   13  H   0.82005
   14 Al   0.21379   0.42834   0.42619   0.50636   0.15756   0.19611   0.22726   0.17857   0.19305
   15 Cl   1.95653   1.83186   1.82709   1.58810   0.00043   0.00086   0.00037   0.00108   0.00044
   16 Cl   1.95679   1.74676   1.68953   1.82462   0.00104   0.00045   0.00060   0.00062   0.00052
   17  H   0.80973
   18  C   1.02977   1.20608   1.20693   0.98451
   19  H   0.70013
   20  H   0.70238
   21  H   0.67074
 ********************************************************************************

                 REACTION COORDINATE =       2.6000  ANGSTROMS 

 ********************************************************************************
 CYCLE:     1 TIME:   0.035 TIME LEFT:  2.00D  GRAD.:    13.902 HEAT: -61.60942
 CYCLE:     2 TIME:   0.035 TIME LEFT:  2.00D  GRAD.:    12.946 HEAT: -61.61063
 CYCLE:     3 TIME:   0.043 TIME LEFT:  2.00D  GRAD.:    11.209 HEAT: -61.61261
 CYCLE:     4 TIME:   0.035 TIME LEFT:  2.00D  GRAD.:     9.716 HEAT: -61.60498
 CYCLE:     5 TIME:   0.043 TIME LEFT:  2.00D  GRAD.:     8.901 HEAT: -61.60671
 CYCLE:     6 TIME:   0.031 TIME LEFT:  2.00D  GRAD.:     8.257 HEAT: -61.60895
 CYCLE:     7 TIME:   0.035 TIME LEFT:  2.00D  GRAD.:     7.437 HEAT: -61.61439
 CYCLE:     8 TIME:   0.047 TIME LEFT:  2.00D  GRAD.:     6.123 HEAT: -61.62488
 CYCLE:     9 TIME:   0.039 TIME LEFT:  2.00D  GRAD.:     4.020 HEAT: -61.73580
 CYCLE:    10 TIME:   0.102 TIME LEFT:  2.00D  GRAD.:     3.725 HEAT: -61.73879

     TRUST RADIUS NOW LESS THAN  0.00010 OPTIMIZATION TERMINATING
      THE GEOMETRY MAY NOT BE COMPLETELY OPTIMIZED
      (TO CONTINUE, ADD 'LET DDMIN=0.0' TO THE KEYWORD LINE)

 -------------------------------------------------------------------------------
 PM7 CHARGE=1 EPS=8.2 EF
 ortho
 (in 1,1,2,2-tetrachloroethane (TeCA))


     GEOMETRY OPTIMISED USING EIGENVECTOR FOLLOWING (EF).     
     SCF FIELD WAS ACHIEVED                                   


                              PM7 CALCULATION
                                                       MOPAC2016 (Version: 22.066W)
                                                       Tue May 10 09:58:33 2022




          FINAL HEAT OF FORMATION =        -61.73865 KCAL/MOL =    -258.31453 KJ/MOL
          VAN DER WAALS AREA      =        228.08 SQUARE ANGSTROMS

          DIELECTRIC ENERGY       =         -2.85550 EV
          COSMO AREA              =        228.08 SQUARE ANGSTROMS
          COSMO VOLUME            =        249.77 CUBIC ANGSTROMS
          GRADIENT NORM           =          3.72454          =       0.81276 PER ATOM
          FOR REACTION COORDINATE =          2.60000 ANGSTROMS
          REACTION GRADIENT       =        -12.53933 KCAL/ANGSTROM
          IONIZATION POTENTIAL    =         10.298141 EV
          HOMO LUMO ENERGIES (EV) =        -10.298 -2.348
          NO. OF FILLED LEVELS    =         34
          MOLECULAR WEIGHT        =        234.0375         POINT GROUP:  C1  

          MOLECULAR DIMENSIONS (Angstroms)

            Atom       Atom       Distance
           Cl    15    H    11     8.19924
            H    21    H    12     5.32564
            H    10   Cl    16     4.10576
          SCF CALCULATIONS        =         23
 
          WALL-CLOCK TIME         =         23.328 SECONDS
          COMPUTATION TIME        =         42.641 SECONDS



       FINAL  POINT  AND  DERIVATIVES

   PARAMETER     ATOM    TYPE            VALUE        GRADIENT
      1          3  C    BOND            1.400200      0.063702  KCAL/ANGSTROM
      2          3  C    ANGLE          88.583215     -0.765173  KCAL/RADIAN  
      3          4  C    BOND            1.396044     -0.301852  KCAL/ANGSTROM
      4          4  C    ANGLE         120.687343     -0.086139  KCAL/RADIAN  
      5          4  C    DIHEDRAL      121.089134     -0.743166  KCAL/RADIAN  
      6          5  O    BOND            1.130242     -0.099878  KCAL/ANGSTROM
      7          5  O    ANGLE          78.733327      0.068051  KCAL/RADIAN  
      8          5  O    DIHEDRAL      248.056883     -0.110113  KCAL/RADIAN  
      9          6  C    BOND            1.394830     -0.420366  KCAL/ANGSTROM
     10          6  C    ANGLE         123.612638     -0.247318  KCAL/RADIAN  
     11          6  C    DIHEDRAL      124.218353      0.269075  KCAL/RADIAN  
     12          7  C    BOND            1.393017      0.309253  KCAL/ANGSTROM
     13          7  C    ANGLE         120.619070     -0.315014  KCAL/RADIAN  
     14          7  C    DIHEDRAL      255.093345      0.272397  KCAL/RADIAN  
     15          8  C    BOND            1.391554      0.419456  KCAL/ANGSTROM
     16          8  C    ANGLE         117.567855     -0.005036  KCAL/RADIAN  
     17          8  C    DIHEDRAL      359.705634     -0.021170  KCAL/RADIAN  
     18          9  O    BOND            1.328812     -0.138074  KCAL/ANGSTROM
     19          9  O    ANGLE         117.104812      0.751789  KCAL/RADIAN  
     20          9  O    DIHEDRAL      308.380060      1.011612  KCAL/RADIAN  
     21         10  H    BOND            1.093393     -0.228626  KCAL/ANGSTROM
     22         10  H    ANGLE         119.504393      0.125887  KCAL/RADIAN  
     23         10  H    DIHEDRAL       75.472536      0.081422  KCAL/RADIAN  
     24         11  H    BOND            1.091496      0.050590  KCAL/ANGSTROM
     25         11  H    ANGLE         119.754871      0.047029  KCAL/RADIAN  
     26         11  H    DIHEDRAL      178.679191     -0.411913  KCAL/RADIAN  
     27         12  H    BOND            1.089295     -0.042251  KCAL/ANGSTROM
     28         12  H    ANGLE         120.674288      0.056957  KCAL/RADIAN  
     29         12  H    DIHEDRAL      180.257522      0.331464  KCAL/RADIAN  
     30         13  H    BOND            1.094536     -0.119528  KCAL/ANGSTROM
     31         13  H    ANGLE         119.699740      0.024473  KCAL/RADIAN  
     32         13  H    DIHEDRAL      179.498784     -0.274742  KCAL/RADIAN  
     33         14 Al    BOND            1.699957      0.557689  KCAL/ANGSTROM
     34         14 Al    ANGLE         192.691328     -1.123650  KCAL/RADIAN  
     35         14 Al    DIHEDRAL      224.798593      0.092828  KCAL/RADIAN  
     36         15 Cl    BOND            2.039972      0.052064  KCAL/ANGSTROM
     37         15 Cl    ANGLE         123.677929     -0.805208  KCAL/RADIAN  
     38         15 Cl    DIHEDRAL      257.495812     -0.429580  KCAL/RADIAN  
     39         16 Cl    BOND            2.043137      0.223246  KCAL/ANGSTROM
     40         16 Cl    ANGLE         119.502168     -0.157861  KCAL/RADIAN  
     41         16 Cl    DIHEDRAL       92.906004      0.459966  KCAL/RADIAN  
     42         17  H    BOND            1.087141      0.086502  KCAL/ANGSTROM
     43         17  H    ANGLE          70.137359     -0.041615  KCAL/RADIAN  
     44         17  H    DIHEDRAL      235.346073      0.947612  KCAL/RADIAN  
     45         18  C    BOND            1.420838     -0.020508  KCAL/ANGSTROM
     46         18  C    ANGLE         109.419048     -1.090360  KCAL/RADIAN  
     47         18  C    DIHEDRAL       69.201061      1.517225  KCAL/RADIAN  
     48         19  H    BOND            1.166302      0.284717  KCAL/ANGSTROM
     49         19  H    ANGLE         114.738979     -0.213674  KCAL/RADIAN  
     50         19  H    DIHEDRAL       24.814833      1.116634  KCAL/RADIAN  
     51         20  H    BOND            1.173243      0.155908  KCAL/ANGSTROM
     52         20  H    ANGLE         113.514688      0.937594  KCAL/RADIAN  
     53         20  H    DIHEDRAL      244.951153      0.175471  KCAL/RADIAN  
     54         21  H    BOND            1.158590      0.414012  KCAL/ANGSTROM
     55         21  H    ANGLE         109.603845     -0.411613  KCAL/RADIAN  
     56         21  H    DIHEDRAL      135.619114      0.189873  KCAL/RADIAN  




  ATOM    CHEMICAL      BOND LENGTH      BOND ANGLE     TWIST ANGLE 
 NUMBER    SYMBOL       (ANGSTROMS)      (DEGREES)       (DEGREES) 
   (I)                     NA:I           NB:NA:I       NC:NB:NA:I       NA    NB    NC 
     1       C          0.00000000       0.0000000       0.0000000        0     0     0
     2       C          2.60000000  +    0.0000000       0.0000000        1     0     0
     3       C          1.40019987  *   88.5832146  *    0.0000000        1     2     0
     4       C          1.39604433  *  120.6873428  *  121.0891338  *     1     2     3
     5       O          1.13024244  *   78.7333275  * -111.9431171  *     2     1     3
     6       C          1.39482955  *  123.6126382  *  124.2183535  *     3     1     2
     7       C          1.39301702  *  120.6190703  * -104.9066554  *     4     1     2
     8       C          1.39155448  *  117.5678549  *   -0.2943660  *     6     3     1
     9       O          1.32881207  *  117.1048120  *  -51.6199402  *     3     1     2
    10       H          1.09339288  *  119.5043935  *   75.4725360  *     4     1     2
    11       H          1.09149592  *  119.7548715  *  178.6791915  *     7     4     1
    12       H          1.08929491  *  120.6742883  * -179.7424779  *     6     3     1
    13       H          1.09453601  *  119.6997403  *  179.4987843  *     8     6     3
    14      Al          1.69995728  *  167.3086721  *   44.7985929  *     9     3     1
    15      Cl          2.03997169  *  123.6779292  * -102.5041883  *    14     9     3
    16      Cl          2.04313726  *  119.5021676  *   92.9060043  *    14     9     3
    17       H          1.08714143  *   70.1373592  * -124.6539274  *     1     2     3
    18       C          1.42083795  *  109.4190479  *   69.2010612  *     2     1     3
    19       H          1.16630200  *  114.7389786  *   24.8148335  *    18     2     1
    20       H          1.17324277  *  113.5146879  * -115.0488469  *    18     2     1
    21       H          1.15859047  *  109.6038454  *  135.6191141  *    18     2     1

                             CARTESIAN COORDINATES

   1    C        0.000000000     0.000000000     0.000000000
   2    C        2.600000000     0.000000000     0.000000000
   3    C        0.034620013     1.399771817     0.000000000
   4    C       -0.712475352    -0.619928762    -1.028108447
   5    O        2.379178077    -0.414216231    -1.028158828
   6    C       -0.599320016     2.187830065    -0.960538240
   7    C       -1.339770902     0.138332255    -2.014027785
   8    C       -1.296066794     1.534069252    -1.972251929
   9    O        0.783782166     1.986861139     0.927266792
  10    H       -0.782016683    -1.710816415    -1.053329866
  11    H       -1.874880131    -0.361582468    -2.823414423
  12    H       -0.537553513     3.274489994    -0.916737449
  13    H       -1.813397931     2.118551926    -2.739557331
  14   Al        1.994116165     2.476785594     2.015807286
  15   Cl        1.963619864     2.046987820     4.009755210
  16   Cl        3.318034590     3.930590245     1.460738013
  17    H        0.369374099    -0.581393524     0.841083135
  18    C        3.072392652     0.475823528     1.252684171
  19    H        2.327902115     0.337196543     2.139688546
  20    H        3.657603762     1.489928923     1.177738778
  21    H        3.937311627    -0.199716481     1.624023274


           Empirical Formula: C8 H8 O2 Al Cl2  =    21 atoms



      MOLECULAR POINT GROUP   :   C1  


                  EIGENVALUES  
 -37.58441 -32.16787 -31.00621 -30.92640 -27.15845 -26.86815 -26.51960 -26.09230
 -23.20723 -22.28235 -22.11959 -19.69384 -19.42175 -19.27236 -18.48625 -17.44641
 -17.31123 -16.94782 -16.71201 -16.13219 -15.63803 -15.28240 -14.66131 -14.41458
 -14.00687 -13.88327 -13.66712 -13.32024 -12.90648 -12.72853 -12.53577 -11.81492
 -10.97303 -10.29814  -2.34757  -2.26693  -0.92338  -0.74292  -0.65549   0.03284
   0.46333   0.60244   1.55895   1.74545   1.89966   2.10862   2.37233   2.55286
   3.31034   3.38316   3.52486   4.06846   4.09275   4.32837   4.88749   4.96008
   5.28809   5.34863   5.53607   5.56604  16.62753  17.20777  17.50824  19.09081
  19.63175  69.27467  69.44778  69.75827  69.99615  70.06769  70.19729  70.29413
  70.70780  70.97056  71.29543


              NET ATOMIC CHARGES AND DIPOLE CONTRIBUTIONS

  ATOM NO.   TYPE          CHARGE      No. of ELECS.   s-Pop       p-Pop       d-Pop       
    1          C          -0.400332        4.4003     1.08381     3.31652
    2          C           0.625968        3.3740     1.18988     2.18415
    3          C           0.393163        3.6068     1.07543     2.53140
    4          C          -0.053350        4.0533     1.09191     2.96144
    5          O           0.105722        5.8943     1.86749     4.02679
    6          C          -0.280910        4.2809     1.08350     3.19741
    7          C          -0.230570        4.2306     1.08345     3.14712
    8          C          -0.050533        4.0505     1.09363     2.95691
    9          O          -0.557034        6.5570     1.62326     4.93378
   10          H           0.169762        0.8302     0.83024
   11          H           0.180385        0.8196     0.81961
   12          H           0.195018        0.8050     0.80498
   13          H           0.179037        0.8210     0.82096
   14         Al           0.473911        2.5261     0.21332     1.35826     0.95452
   15         Cl          -0.215776        7.2158     1.95681     5.25579     0.00317
   16         Cl          -0.222178        7.2222     1.95688     5.26208     0.00322
   17          H           0.184202        0.8158     0.81580
   18          C          -0.429962        4.4300     1.02888     3.40108
   19          H           0.303923        0.6961     0.69608
   20          H           0.301009        0.6990     0.69899
   21          H           0.328545        0.6715     0.67146
 DIPOLE           X         Y         Z       TOTAL
 POINT-CHG.     6.774   -10.453    -4.697    13.313
 HYBRID        -0.658     0.355    -0.010     0.748
 SUM            6.116   -10.098    -4.707    12.710


          ATOMIC ORBITAL ELECTRON POPULATIONS

     Atom    s        px        py        pz      x^2-y^2     xz        z^2       yz        xy
    1  C   1.08381   1.18144   1.02446   1.11062
    2  C   1.18988   0.66326   0.68244   0.83845
    3  C   1.07543   0.84067   0.89374   0.79700
    4  C   1.09191   0.91868   1.08949   0.95327
    5  O   1.86749   1.41850   1.37876   1.22953
    6  C   1.08350   1.06889   1.10983   1.01869
    7  C   1.08345   1.06641   1.01111   1.06959
    8  C   1.09363   0.94612   1.00677   1.00401
    9  O   1.62326   1.62258   1.73222   1.57897
   10  H   0.83024
   11  H   0.81961
   12  H   0.80498
   13  H   0.82096
   14 Al   0.21332   0.42794   0.42641   0.50391   0.15727   0.19457   0.22976   0.17778   0.19514
   15 Cl   1.95681   1.83392   1.83013   1.59174   0.00043   0.00086   0.00036   0.00106   0.00046
   16 Cl   1.95688   1.74712   1.68874   1.82622   0.00103   0.00046   0.00059   0.00062   0.00052
   17  H   0.81580
   18  C   1.02888   1.20426   1.20770   0.98912
   19  H   0.69608
   20  H   0.69899
   21  H   0.67146

 **********************
 *                    *
 * JOB ENDED NORMALLY *
 *                    *
 **********************



 TOTAL JOB TIME:            23.33 SECONDS

 == MOPAC DONE ==
