 *******************************************************************************
 ** Cite this program as: MOPAC2016, Version: 22.066W, James J. P. Stewart,   **
 **                           web-site: HTTP://OpenMOPAC.net.                 **
 *******************************************************************************
 **                                                                           **
 **                                MOPAC2016                                  **
 **                                                                           **
 *******************************************************************************

                              PM7 CALCULATION RESULTS

 *******************************************************************************
 *  CALCULATION DONE:                                Tue May 10 09:59:38 2022  *
 *  PM7        - The PM7 Hamiltonian to be used
 *
 *
 *
 *                 CHARGE ON SYSTEM = +1
 *
 *
 *
 *  EPS=8.2    - USE ANDREAS KLAMT'S COSMO IMPLICIT SOLVATION MODEL
 *  PRECISE    - TIGHTER CRITERIA TO BE USED
 *  TS         - USE EF ROUTINE FOR TS SEARCH
 *  T=         - A TIME OF 172800.0 SECONDS REQUESTED
 *  DUMP=N     - RESTART FILE WRITTEN EVERY 7200.0 SECONDS REQUESTED
 *  PRTCHARGE  - PRINT CHARGES IN ARC FILE
 *******************************************************************************
PM7 CHARGE=1 EPS=8.2 TS PRTCHAR PRECISE

 Transition States calculation
  ATOM    CHEMICAL      BOND LENGTH      BOND ANGLE     TWIST ANGLE 
 NUMBER    SYMBOL       (ANGSTROMS)      (DEGREES)       (DEGREES) 
   (I)                     NA:I           NB:NA:I       NC:NB:NA:I       NA    NB    NC 
     1       C          0.00000000       0.0000000       0.0000000        0     0     0
     2       C          2.10000000  *    0.0000000       0.0000000        1     0     0
     3       C          1.41653532  *   96.7107316  *    0.0000000        1     2     0
     4       C          1.42336693  *  108.5706538  *  120.7929644  *     1     2     3
     5       O          1.14606044  *  102.3156329  * -112.5453987  *     2     1     3
     6       C          1.40493835  *  123.1381170  *  111.5077044  *     3     1     2
     7       C          1.37493795  *  120.9821988  * -104.3986050  *     4     1     2
     8       C          1.38124564  *  118.0157883  *    1.7999158  *     6     3     1
     9       O          1.31062316  *  117.6759743  *  -63.8186378  *     3     1     2
    10       H          1.09615482  *  118.2655204  *   75.7263363  *     4     1     2
    11       H          1.09320867  *  120.4359424  *  178.7697780  *     7     4     1
    12       H          1.09185059  *  120.0039519  * -178.7381962  *     6     3     1
    13       H          1.09824960  *  120.1386591  *  179.1258327  *     8     6     3
    14      Al          1.73842060  *  151.7769519  *   47.6098127  *     9     3     1
    15      Cl          2.02930442  *  123.0904843  * -106.9299493  *    14     9     3
    16      Cl          2.03620707  *  117.2677749  *   91.6787415  *    14     9     3
    17       H          1.09882156  *   88.8391327  * -120.9081146  *     1     2     3
    18       C          1.44514721  *  107.3208024  *   68.5574473  *     2     1     3
    19       H          1.16156300  *  115.3292804  *   26.1118307  *    18     2     1
    20       H          1.17095434  *  111.3533085  * -113.0760636  *    18     2     1
    21       H          1.15311232  *  108.3373666  *  137.8397015  *    18     2     1
 


          CARTESIAN COORDINATES 

    NO.       ATOM           X           Y           Z

     1         C          0.0000      0.0000      0.0000
     2         C          2.1000      0.0000      0.0000
     3         C         -0.1655      1.4068      0.0000
     4         C         -0.4533     -0.6907     -1.1590
     5         O          2.3445     -0.4293     -1.0341
     6         C         -0.6836      2.1192     -1.0945
     7         C         -0.9566     -0.0056     -2.2397
     8         C         -1.0816      1.4019     -2.2058
     9         O          0.2719      2.0712      1.0416
    10         H         -0.3930     -1.7852     -1.1679
    11         H         -1.2836     -0.5439     -3.1332
    12         H         -0.7701      3.2066     -1.0467
    13         H         -1.5049      1.9222     -3.0754
    14        Al          1.4945      2.4372      2.2220
    15        Cl          1.3659      1.8643      4.1645
    16        Cl          2.7954      3.9408      1.7824
    17         H          0.0223     -0.5643      0.9426
    18         C          2.5303      0.5043      1.2841
    19         H          1.7782      0.3503      2.1559
    20         H          3.0653      1.5405      1.1777
    21         H          3.4128     -0.1412      1.6502

 General Reference for PM7:
 "Optimization of Parameters for Semiempirical Methods VI: More Modifications to the 
 NDDO Approximations and Re-optimization of Parameters", J. J. P. Stewart, J. Mol. Mod., 1:32, 19 (2013)
 https://link.springer.com/article/10.1007/s00894-012-1667-x

           Empirical Formula: C8 H8 O2 Al Cl2  =    21 atoms



      MOLECULAR POINT GROUP   :   C1  


      RHF CALCULATION, NO. OF DOUBLY OCCUPIED LEVELS = 34


          Transition state refinement using EF


 ALL CONVERGERS ARE NOW FORCED ON
 SHIFT=10, PULAY ON, CAMP-KING ON
 AND ITERATION COUNTER RESET



          HESSIAN CALCULATED NUMERICALLY

 CYCLE:     1 TIME:   4.477 TIME LEFT:  2.00D  GRAD.:     1.370 HEAT: -55.36916
 CYCLE:     2 TIME:   0.355 TIME LEFT:  2.00D  GRAD.:     1.390 HEAT: -55.36386
 CYCLE:     3 TIME:   0.059 TIME LEFT:  2.00D  GRAD.:     1.230 HEAT: -55.37053
 CYCLE:     4 TIME:   0.203 TIME LEFT:  2.00D  GRAD.:     0.770 HEAT: -55.37962
 CYCLE:     5 TIME:   0.254 TIME LEFT:  2.00D  GRAD.:     0.382 HEAT: -55.37631
 CYCLE:     6 TIME:   0.125 TIME LEFT:  2.00D  GRAD.:     0.294 HEAT: -55.37996
 CYCLE:     7 TIME:   0.324 TIME LEFT:  2.00D  GRAD.:     0.280 HEAT: -55.38008
 CYCLE:     8 TIME:   0.059 TIME LEFT:  2.00D  GRAD.:     0.276 HEAT: -55.38034
 CYCLE:     9 TIME:   0.059 TIME LEFT:  2.00D  GRAD.:     0.313 HEAT: -55.38021
 CYCLE:    10 TIME:   0.051 TIME LEFT:  2.00D  GRAD.:     0.295 HEAT: -55.38433
 CYCLE:    11 TIME:   0.059 TIME LEFT:  2.00D  GRAD.:     0.345 HEAT: -55.38539
 CYCLE:    12 TIME:   0.055 TIME LEFT:  2.00D  GRAD.:     0.675 HEAT: -55.38758
 CYCLE:    13 TIME:   0.070 TIME LEFT:  2.00D  GRAD.:     1.164 HEAT: -55.39621
 CYCLE:    14 TIME:   0.121 TIME LEFT:  2.00D  GRAD.:     3.289 HEAT: -55.39255
 CYCLE:    15 TIME:   0.070 TIME LEFT:  2.00D  GRAD.:     2.074 HEAT: -55.38655
 CYCLE:    16 TIME:   0.344 TIME LEFT:  2.00D  GRAD.:     0.608 HEAT: -55.38634
 CYCLE:    17 TIME:   0.332 TIME LEFT:  2.00D  GRAD.:     0.344 HEAT: -55.38679
 CYCLE:    18 TIME:   0.215 TIME LEFT:  2.00D  GRAD.:     0.202 HEAT: -55.38619

     TRUST RADIUS NOW LESS THAN  0.00010 OPTIMIZATION TERMINATING
      THE GEOMETRY MAY NOT BE COMPLETELY OPTIMIZED
      (TO CONTINUE, ADD 'LET DDMIN=0.0' TO THE KEYWORD LINE)

 -------------------------------------------------------------------------------
 PM7 CHARGE=1 EPS=8.2 TS PRTCHAR PRECISE

 Transition States calculation


     GEOMETRY OPTIMISED USING EIGENVECTOR FOLLOWING (TS).     
     SCF FIELD WAS ACHIEVED                                   


                              PM7 CALCULATION
                                                       MOPAC2016 (Version: 22.066W)
                                                       Tue May 10 09:59:45 2022




          FINAL HEAT OF FORMATION =        -55.38619 KCAL/MOL =    -231.73580 KJ/MOL
          VAN DER WAALS AREA      =        223.64 SQUARE ANGSTROMS



          DIELECTRIC ENERGY       =         -2.45593 EV
          COSMO AREA              =        223.64 SQUARE ANGSTROMS
          COSMO VOLUME            =        245.97 CUBIC ANGSTROMS

          GRADIENT NORM           =          0.35440          =       0.07734 PER ATOM
          IONIZATION POTENTIAL    =         10.682172 EV
          HOMO LUMO ENERGIES (EV) =        -10.682 -2.693
          NO. OF FILLED LEVELS    =         34
          MOLECULAR WEIGHT        =        234.0375         POINT GROUP:  C1  

          MOLECULAR DIMENSIONS (Angstroms)

            Atom       Atom       Distance
           Cl    15    H    11     8.15374
            H    12    H    21     5.31327
           Cl    16    H    10     4.08180


          SCF CALCULATIONS        =        110
 
          WALL-CLOCK TIME         =          7.578 SECONDS
          COMPUTATION TIME        =         14.422 SECONDS




  ATOM    CHEMICAL      BOND LENGTH      BOND ANGLE     TWIST ANGLE 
 NUMBER    SYMBOL       (ANGSTROMS)      (DEGREES)       (DEGREES) 
   (I)                     NA:I           NB:NA:I       NC:NB:NA:I       NA    NB    NC 
     1       C          0.00000000       0.0000000       0.0000000        0     0     0
     2       C          2.09044236  *    0.0000000       0.0000000        1     0     0
     3       C          1.41745297  *   97.0256245  *    0.0000000        1     2     0
     4       C          1.42445876  *  108.4173454  *  120.8710318  *     1     2     3
     5       O          1.14683331  *  102.7049525  * -113.2622419  *     2     1     3
     6       C          1.40532255  *  123.1246831  *  111.4508458  *     3     1     2
     7       C          1.37431787  *  120.9684754  * -104.5157189  *     4     1     2
     8       C          1.38098747  *  118.0098834  *    1.6588998  *     6     3     1
     9       O          1.30959423  *  117.6388010  *  -64.0659787  *     3     1     2
    10       H          1.09611119  *  118.2543150  *   75.5145943  *     4     1     2
    11       H          1.09333143  *  120.4969079  *  178.6656958  *     7     4     1
    12       H          1.09193625  *  119.9769593  * -178.8115493  *     6     3     1
    13       H          1.09841776  *  120.1308448  *  179.3992075  *     8     6     3
    14      Al          1.74027380  *  151.1591889  *   50.8308084  *     9     3     1
    15      Cl          2.02868515  *  123.1726811  * -110.5201494  *    14     9     3
    16      Cl          2.03615138  *  116.8449344  *   88.3069837  *    14     9     3
    17       H          1.09942290  *   89.1725210  * -120.7762539  *     1     2     3
    18       C          1.44608266  *  107.5751892  *   67.8963720  *     2     1     3
    19       H          1.16159828  *  115.3037553  *   26.0683670  *    18     2     1
    20       H          1.17096086  *  111.3445573  * -113.1693555  *    18     2     1
    21       H          1.15265472  *  108.3282538  *  137.7716284  *    18     2     1

                             CARTESIAN COORDINATES

   1    C        0.000000000     0.000000000     0.000000000
   2    C        2.090442360     0.000000000     0.000000000
   3    C       -0.173373250     1.406810094     0.000000000
   4    C       -0.450038199    -0.693463856    -1.160024245
   5    O        2.342666013    -0.441840766    -1.027806693
   6    C       -0.694481048     2.116355800    -1.095409975
   7    C       -0.953696117    -0.010684493    -2.241176706
   8    C       -1.084455843     1.397006073    -2.207876609
   9    O        0.255887723     2.071823224     1.043326214
  10    H       -0.384834732    -1.787601840    -1.168409701
  11    H       -1.276780547    -0.549273592    -3.136113495
  12    H       -0.787972794     3.203199452    -1.046882310
  13    H       -1.505621579     1.915382306    -3.079901311
  14   Al        1.500671428     2.464479761     2.194363693
  15   Cl        1.411298482     1.933708425     4.150343677
  16   Cl        2.779288707     3.966498895     1.689399533
  17    H        0.015877569    -0.562501545     0.944494901
  18    C        2.527097289     0.518736765     1.277262579
  19    H        1.777730702     0.376452806     2.153342236
  20    H        3.064875117     1.551852651     1.156366313
  21    H        3.408937003    -0.124635646     1.647456534


           Empirical Formula: C8 H8 O2 Al Cl2  =    21 atoms



      MOLECULAR POINT GROUP   :   C1  


                  EIGENVALUES  
 -36.14858 -32.81127 -31.30520 -30.56864 -27.25161 -27.12767 -26.76345 -26.18241
 -23.16245 -22.45269 -22.21276 -19.87579 -19.07384 -18.90616 -18.14197 -17.60526
 -17.42564 -16.87662 -16.49275 -16.06966 -15.84908 -15.50080 -14.71373 -14.60700
 -14.06574 -14.01433 -13.67521 -13.55839 -13.01523 -12.93534 -12.56679 -11.90647
 -11.39928 -10.68217  -2.69309  -1.84111  -1.03235  -0.85605  -0.11418   0.08335
   0.37653   0.55822   1.12247   1.63641   2.02817   2.12708   2.41437   2.59052
   2.68130   3.06295   3.50818   3.55920   3.62868   3.91179   4.45924   4.62308
   4.94451   4.98720   5.26186   5.33490  16.58129  16.95291  17.39964  18.75024
  19.25967  69.09388  69.25601  69.56320  69.78778  69.88387  70.04556  70.08785
  70.50822  70.76129  71.08086


              NET ATOMIC CHARGES AND DIPOLE CONTRIBUTIONS

  ATOM NO.   TYPE          CHARGE      No. of ELECS.   s-Pop       p-Pop       d-Pop       
    1          C          -0.494697        4.4947     1.09777     3.39693
    2          C           0.628153        3.3718     1.17990     2.19195
    3          C           0.520508        3.4795     1.09093     2.38856
    4          C          -0.002131        4.0021     1.10025     2.90188
    5          O          -0.072648        6.0726     1.86556     4.20709
    6          C          -0.333961        4.3340     1.08364     3.25032
    7          C          -0.258815        4.2588     1.08444     3.17438
    8          C           0.044998        3.9550     1.10717     2.84783
    9          O          -0.562254        6.5623     1.64590     4.91635
   10          H           0.179724        0.8203     0.82028
   11          H           0.191274        0.8087     0.80873
   12          H           0.208970        0.7910     0.79103
   13          H           0.187412        0.8126     0.81259
   14         Al           0.478286        2.5217     0.21702     1.35278     0.95192
   15         Cl          -0.185283        7.1853     1.95567     5.22649     0.00313
   16         Cl          -0.206131        7.2061     1.95613     5.24675     0.00325
   17          H           0.224133        0.7759     0.77587
   18          C          -0.425910        4.4259     1.03335     3.39257
   19          H           0.281621        0.7184     0.71838
   20          H           0.282962        0.7170     0.71704
   21          H           0.313789        0.6862     0.68621
 DIPOLE           X         Y         Z       TOTAL
 POINT-CHG.     3.645    -8.771    -5.127    10.794
 HYBRID        -0.963     0.338     0.037     1.021
 SUM            2.682    -8.433    -5.090    10.209


          ATOMIC ORBITAL ELECTRON POPULATIONS

     Atom    s        px        py        pz      x^2-y^2     xz        z^2       yz        xy
    1  C   1.09777   1.24295   1.03022   1.12376
    2  C   1.17990   0.67524   0.68306   0.83365
    3  C   1.09093   0.75185   0.87628   0.76043
    4  C   1.10025   0.86530   1.09143   0.94515
    5  O   1.86556   1.54532   1.37832   1.28345
    6  C   1.08364   1.12381   1.12504   1.00147
    7  C   1.08444   1.07414   1.01718   1.08305
    8  C   1.10717   0.83806   0.99226   1.01751
    9  O   1.64590   1.68413   1.71458   1.51765
   10  H   0.82028
   11  H   0.80873
   12  H   0.79103
   13  H   0.81259
   14 Al   0.21702   0.41932   0.43120   0.50226   0.15778   0.20077   0.22056   0.18533   0.18747
   15 Cl   1.95567   1.82084   1.81723   1.58842   0.00040   0.00085   0.00044   0.00099   0.00045
   16 Cl   1.95613   1.74646   1.67643   1.82385   0.00102   0.00050   0.00052   0.00069   0.00052
   17  H   0.77587
   18  C   1.03335   1.19925   1.18740   1.00592
   19  H   0.71838
   20  H   0.71704
   21  H   0.68621

 **********************
 *                    *
 * JOB ENDED NORMALLY *
 *                    *
 **********************



 TOTAL JOB TIME:             7.58 SECONDS

 == MOPAC DONE ==
