 *******************************************************************************
 ** Cite this program as: MOPAC2016, Version: 22.066W, James J. P. Stewart,   **
 **                           web-site: HTTP://OpenMOPAC.net.                 **
 *******************************************************************************
 **                                                                           **
 **                                MOPAC2016                                  **
 **                                                                           **
 *******************************************************************************

                              PM7 CALCULATION RESULTS

 *******************************************************************************
 *  CALCULATION DONE:                                Tue May 10 10:00:34 2022  *
 *  PM7        - The PM7 Hamiltonian to be used
 *  GEO_DAT    - DATA SET GEOMETRY IS IN FILE "B2_TS.arc"
 *
 *
 *
 *                 CHARGE ON SYSTEM = +1
 *
 *
 *
 *  EPS=8.2    - USE ANDREAS KLAMT'S COSMO IMPLICIT SOLVATION MODEL
 *  LET        - OVERRIDE SOME SAFETY CHECKS
 *  FORCE      - FORCE CALCULATION SPECIFIED
 *  T=         - A TIME OF 172800.0 SECONDS REQUESTED
 *  DUMP=N     - RESTART FILE WRITTEN EVERY 7200.0 SECONDS REQUESTED
 *******************************************************************************
PM7 CHARGE=1 EPS=8.2 FORCE LET GEO_DAT="B2_TS.arc"
 ortho (in 1,1,2,2-tetrachloroethane (TeCA))

  ATOM    CHEMICAL      BOND LENGTH      BOND ANGLE     TWIST ANGLE 
 NUMBER    SYMBOL       (ANGSTROMS)      (DEGREES)       (DEGREES) 
   (I)                     NA:I           NB:NA:I       NC:NB:NA:I       NA    NB    NC 
     1       C          0.00000000       0.0000000       0.0000000        0     0     0
     2       C          2.09044236  *    0.0000000       0.0000000        1     0     0
     3       C          1.41745297  *   97.0256245  *    0.0000000        1     2     0
     4       C          1.42445876  *  108.4173454  *  120.8710318  *     1     2     3
     5       O          1.14683331  *  102.7049525  * -113.2622419  *     2     1     3
     6       C          1.40532255  *  123.1246831  *  111.4508458  *     3     1     2
     7       C          1.37431787  *  120.9684754  * -104.5157189  *     4     1     2
     8       C          1.38098747  *  118.0098834  *    1.6588998  *     6     3     1
     9       O          1.30959423  *  117.6388010  *  -64.0659787  *     3     1     2
    10       H          1.09611119  *  118.2543150  *   75.5145943  *     4     1     2
    11       H          1.09333143  *  120.4969079  *  178.6656958  *     7     4     1
    12       H          1.09193625  *  119.9769593  * -178.8115493  *     6     3     1
    13       H          1.09841776  *  120.1308448  *  179.3992075  *     8     6     3
    14      Al          1.74027380  *  151.1591889  *   50.8308084  *     9     3     1
    15      Cl          2.02868515  *  123.1726811  * -110.5201494  *    14     9     3
    16      Cl          2.03615138  *  116.8449344  *   88.3069837  *    14     9     3
    17       H          1.09942290  *   89.1725210  * -120.7762539  *     1     2     3
    18       C          1.44608266  *  107.5751892  *   67.8963720  *     2     1     3
    19       H          1.16159828  *  115.3037553  *   26.0683670  *    18     2     1
    20       H          1.17096086  *  111.3445573  * -113.1693555  *    18     2     1
    21       H          1.15265472  *  108.3282538  *  137.7716284  *    18     2     1
 


          CARTESIAN COORDINATES 

    NO.       ATOM           X           Y           Z

     1         C          0.0000      0.0000      0.0000
     2         C          2.0904      0.0000      0.0000
     3         C         -0.1734      1.4068      0.0000
     4         C         -0.4500     -0.6935     -1.1600
     5         O          2.3427     -0.4418     -1.0278
     6         C         -0.6945      2.1164     -1.0954
     7         C         -0.9537     -0.0107     -2.2412
     8         C         -1.0845      1.3970     -2.2079
     9         O          0.2559      2.0718      1.0433
    10         H         -0.3848     -1.7876     -1.1684
    11         H         -1.2768     -0.5493     -3.1361
    12         H         -0.7880      3.2032     -1.0469
    13         H         -1.5056      1.9154     -3.0799
    14        Al          1.5007      2.4645      2.1944
    15        Cl          1.4113      1.9337      4.1503
    16        Cl          2.7793      3.9665      1.6894
    17         H          0.0159     -0.5625      0.9445
    18         C          2.5271      0.5187      1.2773
    19         H          1.7777      0.3765      2.1533
    20         H          3.0649      1.5519      1.1564
    21         H          3.4089     -0.1246      1.6475

 General Reference for PM7:
 "Optimization of Parameters for Semiempirical Methods VI: More Modifications to the 
 NDDO Approximations and Re-optimization of Parameters", J. J. P. Stewart, J. Mol. Mod., 1:32, 19 (2013)
 https://link.springer.com/article/10.1007/s00894-012-1667-x

           Empirical Formula: C8 H8 O2 Al Cl2  =    21 atoms



      MOLECULAR POINT GROUP   :   C1  


      RHF CALCULATION, NO. OF DOUBLY OCCUPIED LEVELS = 34



 ALL CONVERGERS ARE NOW FORCED ON
 SHIFT=10, PULAY ON, CAMP-KING ON
 AND ITERATION COUNTER RESET




          HEAT OF FORMATION =     -55.386186 KCALS/MOLE


          CARTESIAN COORDINATE DERIVATIVES

   NUMBER  ATOM         X            Y            Z

     1       C     -0.100082    -0.306123    -1.108658
     2       C      0.096183     0.273317     0.327546
     3       C     -0.118647    -0.187218     0.969562
     4       C      0.016061     0.008092     0.010476
     5       O     -0.049350    -0.021076     0.002141
     6       C      0.006152     0.006332     0.005229
     7       C      0.007942     0.006729    -0.014151
     8       C     -0.001864    -0.005225    -0.007059
     9       O      0.155323     0.289037    -0.255931
    10       H     -0.019443    -0.000735     0.006310
    11       H     -0.000960    -0.004560     0.002636
    12       H     -0.000794    -0.001147     0.002406
    13       H      0.000268     0.003049     0.003594
    14      Al     -0.040217    -0.130125     0.066444
    15      Cl      0.003870    -0.037020     0.015389
    16      Cl     -0.008098     0.046925     0.015388
    17       H      0.035132    -0.003673    -0.007421
    18       C      0.025399     0.082103    -0.018017
    19       H      0.013188    -0.061818    -0.010362
    20       H     -0.061659     0.014510     0.017684
    21       H      0.041595     0.028626    -0.023209
 


          GRADIENT NORM =   1.65479


          TIME FOR SCF CALCULATION =    2.21

          TIME FOR DERIVATIVES     =    0.04

          MOLECULAR WEIGHT =  234.04



          ROTATIONAL CONSTANTS IN CM(-1)

          A =    0.03134192   B =    0.01108798   C =    0.01064227



           PRINCIPAL MOMENTS OF INERTIA IN UNITS OF 10**(-40)*GRAM-CM**2

          A =      893.1417   B =     2524.6050   C =     2630.3397


          ORIENTATION OF MOLECULE IN FORCE CALCULATION

    NO.       ATOM         X         Y         Z

     1          C      -1.0688   -1.5497   -0.8492
     2          C       1.0217   -1.5497   -0.8492
     3          C      -1.2421   -0.1428   -0.8492
     4          C      -1.5188   -2.2431   -2.0093
     5          O       1.2739   -1.9915   -1.8771
     6          C      -1.7633    0.5667   -1.9447
     7          C      -2.0225   -1.5603   -3.0904
     8          C      -2.1532   -0.1527   -3.0571
     9          O      -0.8129    0.5222    0.1941
    10          H      -1.4536   -3.3373   -2.0177
    11          H      -2.3456   -2.0989   -3.9854
    12          H      -1.8567    1.6535   -1.8961
    13          H      -2.5744    0.3657   -3.9291
    14         Al       0.4319    0.9148    1.3451
    15         Cl       0.3425    0.3841    3.3011
    16         Cl       1.7105    2.4168    0.8402
    17          H      -1.0529   -2.1122    0.0952
    18          C       1.4583   -1.0309    0.4280
    19          H       0.7090   -1.1732    1.3041
    20          H       1.9961    0.0022    0.3071
    21          H       2.3402   -1.6743    0.7982


    FIRST DERIVATIVES WILL BE USED IN THE CALCULATION OF SECOND DERIVATIVES

          ESTIMATED TIME TO COMPLETE CALCULATION =      282.52 SECONDS

    FOR POINT-GROUP C1   THERE ARE   1 UNIQUE SYMMETRY FUNCTIONS.

 STEP:   1 TIME =     0.16 SECS, INTEGRAL =      0.16 TIME LEFT: 172797.60
 STEP:   2 TIME =     0.14 SECS, INTEGRAL =      0.30 TIME LEFT: 172797.46
 STEP:   3 TIME =     0.13 SECS, INTEGRAL =      0.43 TIME LEFT: 172797.32
 STEP:   4 TIME =     0.14 SECS, INTEGRAL =      0.58 TIME LEFT: 172797.18
 STEP:   5 TIME =     0.13 SECS, INTEGRAL =      0.71 TIME LEFT: 172797.05
 STEP:   6 TIME =     0.13 SECS, INTEGRAL =      0.84 TIME LEFT: 172796.92
 STEP:   7 TIME =     0.12 SECS, INTEGRAL =      0.96 TIME LEFT: 172796.80
 STEP:   8 TIME =     0.14 SECS, INTEGRAL =      1.10 TIME LEFT: 172796.66
 STEP:   9 TIME =     0.16 SECS, INTEGRAL =      1.26 TIME LEFT: 172796.50
 STEP:  10 TIME =     0.15 SECS, INTEGRAL =      1.41 TIME LEFT: 172796.35
 STEP:  11 TIME =     0.13 SECS, INTEGRAL =      1.54 TIME LEFT: 172796.21
 STEP:  12 TIME =     0.14 SECS, INTEGRAL =      1.68 TIME LEFT: 172796.07
 STEP:  13 TIME =     0.11 SECS, INTEGRAL =      1.80 TIME LEFT: 172795.96
 STEP:  14 TIME =     0.12 SECS, INTEGRAL =      1.92 TIME LEFT: 172795.84
 STEP:  15 TIME =     0.11 SECS, INTEGRAL =      2.03 TIME LEFT: 172795.73
 STEP:  16 TIME =     0.12 SECS, INTEGRAL =      2.16 TIME LEFT: 172795.60
 STEP:  17 TIME =     0.11 SECS, INTEGRAL =      2.26 TIME LEFT: 172795.50
 STEP:  18 TIME =     0.13 SECS, INTEGRAL =      2.39 TIME LEFT: 172795.37
 STEP:  19 TIME =     0.10 SECS, INTEGRAL =      2.49 TIME LEFT: 172795.27
 STEP:  20 TIME =     0.13 SECS, INTEGRAL =      2.62 TIME LEFT: 172795.13
 STEP:  21 TIME =     0.12 SECS, INTEGRAL =      2.74 TIME LEFT: 172795.02
 STEP:  22 TIME =     0.11 SECS, INTEGRAL =      2.85 TIME LEFT: 172794.91
 STEP:  23 TIME =     0.14 SECS, INTEGRAL =      2.99 TIME LEFT: 172794.77
 STEP:  24 TIME =     0.14 SECS, INTEGRAL =      3.13 TIME LEFT: 172794.63
 STEP:  25 TIME =     0.20 SECS, INTEGRAL =      3.33 TIME LEFT: 172794.43
 STEP:  26 TIME =     0.19 SECS, INTEGRAL =      3.52 TIME LEFT: 172794.24
 STEP:  27 TIME =     0.23 SECS, INTEGRAL =      3.75 TIME LEFT: 172794.01
 STEP:  28 TIME =     0.13 SECS, INTEGRAL =      3.88 TIME LEFT: 172793.88
 STEP:  29 TIME =     0.09 SECS, INTEGRAL =      3.97 TIME LEFT: 172793.79
 STEP:  30 TIME =     0.12 SECS, INTEGRAL =      4.09 TIME LEFT: 172793.67
 STEP:  31 TIME =     0.11 SECS, INTEGRAL =      4.19 TIME LEFT: 172793.57
 STEP:  32 TIME =     0.09 SECS, INTEGRAL =      4.28 TIME LEFT: 172793.48
 STEP:  33 TIME =     0.11 SECS, INTEGRAL =      4.38 TIME LEFT: 172793.38
 STEP:  34 TIME =     0.11 SECS, INTEGRAL =      4.49 TIME LEFT: 172793.27
 STEP:  35 TIME =     0.09 SECS, INTEGRAL =      4.58 TIME LEFT: 172793.18
 STEP:  36 TIME =     0.09 SECS, INTEGRAL =      4.68 TIME LEFT: 172793.08
 STEP:  37 TIME =     0.11 SECS, INTEGRAL =      4.78 TIME LEFT: 172792.98
 STEP:  38 TIME =     0.08 SECS, INTEGRAL =      4.86 TIME LEFT: 172792.89
 STEP:  39 TIME =     0.11 SECS, INTEGRAL =      4.97 TIME LEFT: 172792.79
 STEP:  40 TIME =     0.17 SECS, INTEGRAL =      5.14 TIME LEFT: 172792.61
 STEP:  41 TIME =     0.19 SECS, INTEGRAL =      5.34 TIME LEFT: 172792.42
 STEP:  42 TIME =     0.18 SECS, INTEGRAL =      5.52 TIME LEFT: 172792.24
 STEP:  43 TIME =     0.15 SECS, INTEGRAL =      5.67 TIME LEFT: 172792.09
 STEP:  44 TIME =     0.19 SECS, INTEGRAL =      5.86 TIME LEFT: 172791.90
 STEP:  45 TIME =     0.23 SECS, INTEGRAL =      6.09 TIME LEFT: 172791.67
 STEP:  46 TIME =     0.23 SECS, INTEGRAL =      6.32 TIME LEFT: 172791.43
 STEP:  47 TIME =     0.22 SECS, INTEGRAL =      6.55 TIME LEFT: 172791.21
 STEP:  48 TIME =     0.20 SECS, INTEGRAL =      6.74 TIME LEFT: 172791.02
 STEP:  49 TIME =     0.11 SECS, INTEGRAL =      6.85 TIME LEFT: 172790.91
 STEP:  50 TIME =     0.10 SECS, INTEGRAL =      6.95 TIME LEFT: 172790.80
 STEP:  51 TIME =     0.08 SECS, INTEGRAL =      7.04 TIME LEFT: 172790.72
 STEP:  52 TIME =     0.16 SECS, INTEGRAL =      7.20 TIME LEFT: 172790.56
 STEP:  53 TIME =     0.14 SECS, INTEGRAL =      7.34 TIME LEFT: 172790.41
 STEP:  54 TIME =     0.16 SECS, INTEGRAL =      7.50 TIME LEFT: 172790.26
 STEP:  55 TIME =     0.14 SECS, INTEGRAL =      7.64 TIME LEFT: 172790.11
 STEP:  56 TIME =     0.15 SECS, INTEGRAL =      7.79 TIME LEFT: 172789.96
 STEP:  57 TIME =     0.12 SECS, INTEGRAL =      7.92 TIME LEFT: 172789.84
 STEP:  58 TIME =     0.14 SECS, INTEGRAL =      8.05 TIME LEFT: 172789.70
 STEP:  59 TIME =     0.13 SECS, INTEGRAL =      8.19 TIME LEFT: 172789.57
 STEP:  60 TIME =     0.18 SECS, INTEGRAL =      8.36 TIME LEFT: 172789.39
 STEP:  61 TIME =     0.10 SECS, INTEGRAL =      8.46 TIME LEFT: 172789.30
 STEP:  62 TIME =     0.11 SECS, INTEGRAL =      8.57 TIME LEFT: 172789.18
 STEP:  63 TIME =     0.09 SECS, INTEGRAL =      8.67 TIME LEFT: 172789.09

(To convert to Hartree/Bohr^2, multiply by (10^(-21) x N x a0^2)/(4.184 x 627.51) =  0.0642)


           FORCE MATRIX IN MILLIDYNES/ANGSTROM


                  C  1       C  2       C  3       C  4       O  5       C  6
 ------------------------------------------------------------------------------
     C    1  13.756497
     C    2   1.789013  21.154398
     C    3   5.176324   1.124509  16.214474
     C    4   4.934912   0.912058   1.621554  15.185114
     O    5   1.241209  16.024361   0.434674   0.321280  17.120507
     C    6   1.533951   0.082710   5.146725   1.257330   0.033450  15.073073
     C    7   1.888370   0.531427   1.298140   6.978335   0.201927   2.095911
     C    8   1.119679   0.288886   2.315342   2.154113   0.103543   6.655174
     O    9   1.483931   0.691835   5.571185   0.373308   0.268349   1.814519
     H   10   0.717237   0.061500   0.098257   3.418122   0.026221   0.064692
     H   11   0.105474   0.046115   0.037755   0.780554   0.019031   0.073565
     H   12   0.068874   0.046988   0.763737   0.026169   0.018642   3.387103
     H   13   0.070060   0.061126   0.137359   0.084090   0.025446   0.704359
    Al   14   0.329847   0.612271   1.741850   0.173867   0.161352   0.334997
    Cl   15   0.034086   0.094181   0.196332   0.014748   0.043414   0.060624
    Cl   16   0.035046   0.128289   0.209561   0.014838   0.035942   0.094801
     H   17   3.251643   0.527951   0.733866   0.751194   0.106059   0.055940
     C   18   0.558465   4.283272   0.201082   0.143698   0.980280   0.084388
     H   19   0.069042   0.781744   0.056056   0.024185   0.046059   0.021447
     H   20   0.094599   0.842162   0.071088   0.030610   0.069218   0.046585
     H   21   0.079639   0.997291   0.036914   0.026776   0.060324   0.012913


                  C  7       C  8       O  9       H 10       H 11       H 12
 ------------------------------------------------------------------------------
     C    7  15.023296
     C    8   5.154190  14.958133
     O    9   0.430649   0.534338  10.977547
     H   10   0.709760   0.129360   0.020748   4.251368
     H   11   3.408166   0.750210   0.042189   0.043849   4.308800
     H   12   0.107692   0.763657   0.078376   0.013608   0.009890   4.289759
     H   13   0.685670   3.421952   0.021341   0.016186   0.023622   0.040956
    Al   14   0.193731   0.232801   2.812383   0.010909   0.017089   0.052184
    Cl   15   0.020854   0.027894   0.705914   0.014406   0.004294   0.013151
    Cl   16   0.024372   0.036425   0.757713   0.010672   0.004604   0.011708
     H   17   0.089589   0.029416   0.112850   0.026609   0.009631   0.008812
     C   18   0.110606   0.063455   0.475137   0.016743   0.015249   0.017060
     H   19   0.017320   0.009577   0.109289   0.004524   0.003205   0.004004
     H   20   0.022936   0.011567   0.084993   0.004625   0.004473   0.008114
     H   21   0.021168   0.010836   0.038907   0.003827   0.002304   0.001971


                  H 13      Al 14      Cl 15      Cl 16       H 17       C 18
 ------------------------------------------------------------------------------
     H   13   4.241173
    Al   14   0.010149   6.996277
    Cl   15   0.005202   2.565545   3.555348
    Cl   16   0.011462   2.486273   0.667258   3.482042
     H   17   0.010711   0.079807   0.013361   0.014856   4.181872
     C   18   0.016777   0.678323   0.319277   0.363105   0.043998  11.319599
     H   19   0.002863   0.601779   0.121336   0.065760   0.039152   2.843939
     H   20   0.005895   0.685429   0.096703   0.155261   0.019337   2.751277
     H   21   0.001832   0.201546   0.047575   0.044352   0.016711   2.750067


                  H 19       H 20       H 21
 ------------------------------------------
     H   19   3.484410
     H   20   0.341694   3.307097
     H   21   0.425993   0.328621   3.728645


          HEAT OF FORMATION =     -55.386186 KCALS/MOLE

          ZERO POINT ENERGY      85.438 KCAL/MOL

         NOTE: SYSTEM IS NOT A GROUND STATE, THEREFORE ZERO POINT
         ENERGY IS NOT MEANINGFULL. ZERO POINT ENERGY PRINTED
         DOES NOT INCLUDE THE  2 IMAGINARY FREQUENCIES


           NORMAL COORDINATE ANALYSIS (Total motion = 1 Angstrom)


   Root No.       1         2         3         4         5         6         7         8

                 1 A       2 A       3 A       4 A       5 A       6 A       7 A       8 A   

                -428.6    -124.6      19.5      60.7      80.4     100.6     115.1     143.2
  
           1   -0.1207    0.0059    0.0218   -0.0261   -0.0135    0.0102   -0.0035   -0.0280
           2    0.0010   -0.0027    0.0046    0.0015   -0.0068    0.0092   -0.0346   -0.0217
           3    0.0038   -0.0048    0.0017    0.0304   -0.0309   -0.0195   -0.0166    0.0146
           4    0.1882    0.0008    0.0185   -0.0285   -0.0205    0.0100   -0.0055   -0.0213
           5    0.0086    0.0384    0.0153    0.0184   -0.0116   -0.0217   -0.0088   -0.0139
           6    0.0008    0.0089   -0.0198   -0.0072    0.0028    0.0293   -0.0265    0.0114
           7   -0.0206   -0.0060    0.0005    0.0091   -0.0250    0.0256    0.0211   -0.0267
           8   -0.0170   -0.0035    0.0026    0.0062   -0.0078    0.0110   -0.0320   -0.0226
           9   -0.0053   -0.0023   -0.0094   -0.0074   -0.0316   -0.0280   -0.0001    0.0293
          10   -0.0348    0.0098    0.0069   -0.0390    0.0058   -0.0187   -0.0351    0.0115
          11    0.0031   -0.0039   -0.0143   -0.0199   -0.0105    0.0081   -0.0126   -0.0037
          12    0.0137   -0.0061    0.0184    0.0484   -0.0369   -0.0081   -0.0186   -0.0109
          13   -0.0259    0.0178    0.0159   -0.0375   -0.0012    0.0204   -0.0114   -0.0406
          14   -0.0091    0.0935    0.0143    0.0506   -0.0220   -0.0323    0.0196   -0.0057
          15   -0.0166   -0.0112   -0.0200   -0.0237    0.0117    0.0364   -0.0409    0.0034
          16    0.0048   -0.0195   -0.0447    0.0535   -0.0333    0.0061    0.0376   -0.0301
          17   -0.0024   -0.0066   -0.0186   -0.0092   -0.0151    0.0111   -0.0067   -0.0091
          18   -0.0018    0.0031   -0.0012   -0.0383   -0.0312   -0.0185    0.0083    0.0394
          19   -0.0046   -0.0013   -0.0364   -0.0004    0.0054   -0.0544   -0.0360    0.0537
          20    0.0127   -0.0058   -0.0342   -0.0352   -0.0157    0.0055    0.0100    0.0136
          21   -0.0140   -0.0022    0.0261    0.0208   -0.0401    0.0066   -0.0041   -0.0199
          22   -0.0006   -0.0167   -0.0635    0.0505   -0.0179   -0.0414    0.0070    0.0194
          23   -0.0027   -0.0074   -0.0367   -0.0294   -0.0184    0.0068    0.0139    0.0097
          24   -0.0082    0.0023    0.0169   -0.0244   -0.0356    0.0009    0.0063    0.0106
          25    0.0135    0.0059    0.0217    0.0074   -0.0274    0.0500    0.0337   -0.0011
          26   -0.0089   -0.0044    0.0216    0.0195   -0.0034    0.0082   -0.0524   -0.0266
          27    0.0047   -0.0069   -0.0300   -0.0149   -0.0298   -0.0374    0.0062    0.0214
          28   -0.0385    0.0209    0.0307   -0.0808    0.0225   -0.0217   -0.0636    0.0178
          29    0.0054   -0.0033   -0.0130   -0.0226   -0.0097    0.0080   -0.0141   -0.0031
          30    0.0021   -0.0092    0.0259    0.0844   -0.0388   -0.0073   -0.0299   -0.0285
          31    0.0263    0.0016   -0.0502   -0.0091    0.0235   -0.0924   -0.0697    0.1089
          32    0.0075   -0.0069   -0.0493   -0.0511   -0.0183    0.0021    0.0259    0.0292
          33   -0.0187   -0.0028    0.0403    0.0333   -0.0453    0.0224   -0.0018   -0.0493
          34    0.0225   -0.0303   -0.0629    0.0898   -0.0506    0.0241    0.0708   -0.0586
          35   -0.0039   -0.0074   -0.0198   -0.0045   -0.0163    0.0128   -0.0043   -0.0127
          36   -0.0051    0.0060   -0.0096   -0.0727   -0.0308   -0.0240    0.0185    0.0651
          37    0.0056   -0.0258   -0.0987    0.0865   -0.0230   -0.0685    0.0151    0.0346
          38    0.0075   -0.0091   -0.0532   -0.0404   -0.0214    0.0038    0.0324    0.0216
          39   -0.0009    0.0053    0.0234   -0.0477   -0.0350    0.0119    0.0133    0.0104
          40   -0.0197   -0.0016    0.0090    0.0033   -0.0434    0.0228    0.0272    0.0327
          41    0.0104   -0.0037    0.0164    0.0026   -0.0010   -0.0068   -0.0309    0.0120
          42   -0.0028   -0.0027   -0.0156   -0.0029   -0.0191   -0.0068    0.0050   -0.0319
          43    0.0021    0.0011   -0.0518    0.0118    0.0894    0.0047   -0.0225   -0.0109
          44   -0.0002    0.0144   -0.0024   -0.0248    0.0519   -0.0200    0.0605   -0.0041
          45   -0.0006    0.0013   -0.0217   -0.0084    0.0048   -0.0097    0.0249   -0.0345
          46    0.0024    0.0085    0.0579   -0.0055    0.0081   -0.0313   -0.0114    0.0100
          47   -0.0024   -0.0221   -0.0053    0.0178   -0.0052    0.0428    0.0081    0.0395
          48    0.0018   -0.0187    0.0519    0.0216    0.0883    0.0112    0.0184    0.0177
          49    0.0953    0.0032    0.0394   -0.0317   -0.0274    0.0038    0.0056   -0.0305
          50   -0.0024   -0.0064    0.0138    0.0255   -0.0077    0.0134   -0.0468   -0.0334
          51   -0.0191   -0.0065    0.0073    0.0441   -0.0304   -0.0161   -0.0243    0.0065
          52    0.0269   -0.0207    0.0168   -0.0089   -0.0386    0.0083    0.0203   -0.0007
          53    0.0023   -0.0648    0.0228   -0.0013   -0.0079   -0.0398   -0.0145   -0.0301
          54    0.0212    0.0596   -0.0218   -0.0056    0.0081    0.0389   -0.0298    0.0100
          55   -0.0509   -0.0643    0.0169    0.0008   -0.0505   -0.0116    0.0470   -0.0014
          56   -0.0351   -0.0382    0.0176    0.0035   -0.0068   -0.0111   -0.0193    0.0029
          57   -0.0459    0.0218   -0.0224    0.0032   -0.0031    0.0262   -0.0067    0.0147
          58    0.0205    0.0867    0.0036    0.0051   -0.0318    0.0509    0.0059    0.0417
          59    0.0223   -0.1166    0.0282   -0.0077   -0.0104   -0.0616   -0.0070   -0.0533
          60    0.0841    0.1974   -0.0265   -0.0020    0.0187    0.0636   -0.0515    0.0184
          61    0.0262   -0.0975    0.0223   -0.0157   -0.0372   -0.0260    0.0267   -0.0302
          62    0.0330   -0.1860    0.0372   -0.0205   -0.0029   -0.0889   -0.0173   -0.0792
          63    0.1039    0.0598   -0.0182   -0.0207    0.0185    0.0479   -0.0548    0.0082


   Root No.       9        10        11        12        13        14        15        16

                 9 A      10 A      11 A      12 A      13 A      14 A      15 A      16 A   

                 186.9     226.1     253.8     299.3     365.5     382.3     422.9     442.3
  
           1    0.0085   -0.0277    0.0042   -0.0181   -0.0462    0.0284   -0.0235    0.0202
           2   -0.0352   -0.0208   -0.0122   -0.0047    0.0085    0.0186   -0.0163   -0.0194
           3   -0.0176   -0.0151   -0.0029    0.0037   -0.0066   -0.0325    0.0218   -0.0009
           4   -0.0062   -0.0325   -0.0048   -0.0069   -0.0003    0.0057   -0.0140    0.0167
           5    0.0090    0.0312   -0.0227   -0.0030   -0.0040    0.0500    0.1030   -0.0008
           6    0.0127    0.0419   -0.0504   -0.0075    0.0014   -0.0206   -0.0433    0.0084
           7    0.0092    0.0004    0.0224   -0.0274   -0.0106   -0.0106   -0.0015   -0.0119
           8   -0.0346   -0.0185   -0.0093   -0.0013    0.0121    0.0148   -0.0158   -0.0249
           9    0.0078   -0.0148    0.0049    0.0068    0.0050    0.0013    0.0075    0.0206
          10   -0.0307   -0.0069    0.0085   -0.0730    0.0134   -0.0100    0.0041    0.0226
          11   -0.0116   -0.0103   -0.0093   -0.0027   -0.0005    0.0001   -0.0069   -0.0022
          12   -0.0207   -0.0318   -0.0056    0.0235   -0.0216   -0.0107    0.0065   -0.0179
          13    0.0420   -0.0436   -0.0028    0.0848    0.0222   -0.0242    0.0131   -0.0237
          14    0.0127    0.0290   -0.0294    0.0055    0.0124   -0.0320   -0.0427    0.0053
          15    0.0218    0.0400   -0.0477    0.0103    0.0032    0.0063    0.0263   -0.0018
          16    0.0466   -0.0188   -0.0013   -0.0594    0.0183   -0.0285    0.0290   -0.0091
          17   -0.0075   -0.0151   -0.0131   -0.0052   -0.0111   -0.0121    0.0040   -0.0161
          18    0.0075   -0.0042    0.0149    0.0197   -0.0268   -0.0096    0.0066    0.0237
          19   -0.0525    0.0083    0.0192    0.0125   -0.0035   -0.0274    0.0180   -0.0325
          20    0.0097   -0.0025   -0.0050    0.0050   -0.0194   -0.0216    0.0102    0.0035
          21    0.0032   -0.0346   -0.0077   -0.0127   -0.0264   -0.0148    0.0116    0.0126
          22    0.0099   -0.0166   -0.0028    0.0339   -0.0323    0.0278   -0.0120    0.0347
          23    0.0159   -0.0052   -0.0084    0.0065   -0.0243   -0.0163    0.0088    0.0107
          24    0.0066   -0.0118    0.0120   -0.0211   -0.0053   -0.0315    0.0236   -0.0025
          25   -0.0297    0.0607    0.0561    0.0194   -0.0289   -0.0183    0.0165    0.0035
          26   -0.0449   -0.0250    0.0016    0.0060    0.0063   -0.0122    0.0018    0.0422
          27    0.0300   -0.0350   -0.0155   -0.0194    0.0271    0.0285   -0.0187   -0.0293
          28   -0.0537   -0.0013    0.0094   -0.1719    0.0697   -0.0270    0.0202    0.0636
          29   -0.0130   -0.0098   -0.0094   -0.0090    0.0028   -0.0015   -0.0053    0.0006
          30   -0.0353   -0.0423   -0.0090    0.0590   -0.0287    0.0170   -0.0124   -0.0481
          31   -0.1111    0.0363    0.0398    0.0436    0.0212   -0.0721    0.0467   -0.0999
          32    0.0248    0.0066    0.0012    0.0078   -0.0231   -0.0314    0.0207    0.0090
          33    0.0149   -0.0501   -0.0187   -0.0255   -0.0317    0.0080   -0.0059    0.0335
          34    0.0921   -0.0274   -0.0139   -0.1205    0.0537   -0.0710    0.0779   -0.0058
          35   -0.0035   -0.0163   -0.0141   -0.0114   -0.0065   -0.0151    0.0086   -0.0160
          36    0.0139    0.0070    0.0222    0.0460   -0.0645   -0.0173    0.0062    0.0461
          37    0.0268   -0.0289   -0.0189    0.1032   -0.0771    0.0924   -0.0491    0.1178
          38    0.0370    0.0015   -0.0041    0.0160   -0.0272   -0.0085    0.0051    0.0313
          39    0.0108   -0.0019    0.0219   -0.0484    0.0141   -0.0585    0.0395   -0.0294
          40   -0.0203   -0.0036   -0.0163    0.0131    0.0436    0.0127    0.0055    0.0088
          41    0.0413    0.0110    0.0561   -0.0132   -0.0248    0.0075   -0.0179   -0.0191
          42   -0.0103    0.0193    0.0417    0.0002    0.0006    0.0104   -0.0079   -0.0057
          43    0.0042    0.0036    0.0010    0.0004   -0.0028   -0.0026    0.0002    0.0009
          44   -0.0143   -0.0137   -0.0087   -0.0011   -0.0057   -0.0049    0.0038    0.0004
          45   -0.0208    0.0184    0.0241    0.0054    0.0224    0.0196   -0.0114   -0.0012
          46    0.0217    0.0140    0.0068    0.0008    0.0147    0.0094   -0.0104   -0.0013
          47    0.0066   -0.0031    0.0189    0.0024    0.0212    0.0119   -0.0119    0.0006
          48    0.0001   -0.0136   -0.0083   -0.0027   -0.0071   -0.0021    0.0049   -0.0010
          49    0.0078   -0.0330    0.0017   -0.0038   -0.0485    0.0498   -0.0106    0.0393
          50   -0.0542   -0.0260   -0.0176    0.0014    0.0040    0.0093   -0.0206   -0.0517
          51   -0.0275   -0.0187   -0.0063    0.0070   -0.0117   -0.0349    0.0159   -0.0216
          52   -0.0223    0.0210   -0.0763   -0.0175   -0.0506    0.0201   -0.0244   -0.0314
          53    0.0211    0.0497   -0.0298    0.0109    0.0193    0.0012    0.0365    0.0197
          54    0.0141    0.0149   -0.0198   -0.0080    0.0044   -0.0014   -0.0155    0.0146
          55   -0.0334    0.0808   -0.1528   -0.0140   -0.0833    0.0043   -0.0537   -0.0738
          56    0.0253    0.0295   -0.0029    0.0015    0.0025    0.0093    0.0098   -0.0011
          57    0.0025    0.0639   -0.0911   -0.0040   -0.0129   -0.0134   -0.0371   -0.0151
          58   -0.0240   -0.0121   -0.0777   -0.0266   -0.0490    0.0830    0.0809   -0.0354
          59    0.0195    0.0658   -0.0358    0.0194    0.0356   -0.0323   -0.0068    0.0339
          60    0.0131   -0.0306    0.0274   -0.0335   -0.0394    0.0952    0.1196   -0.0029
          61   -0.0188    0.0617   -0.1036   -0.0027   -0.0339   -0.0329   -0.0838   -0.0180
          62    0.0355    0.0798   -0.0296    0.0318    0.0621   -0.0886   -0.0698    0.0687
          63    0.0286   -0.0322    0.0345   -0.0073    0.0454   -0.0163   -0.0313    0.0627


   Root No.      17        18        19        20        21        22        23        24

                17 A      18 A      19 A      20 A      21 A      22 A      23 A      24 A   

                 470.0     479.8     543.1     575.6     599.3     671.4     688.3     732.7
  
           1    0.0440   -0.0191    0.0275   -0.0013    0.0408   -0.0521    0.0061    0.0012
           2   -0.0103   -0.0255   -0.0353    0.0079   -0.0102   -0.0141   -0.0057    0.0383
           3   -0.0172    0.0111    0.0264   -0.0114    0.0733    0.0299   -0.0036    0.0104
           4    0.0164   -0.0108    0.0031   -0.0031    0.0043   -0.0051    0.0001   -0.0065
           5    0.0061   -0.0055   -0.0011    0.0205    0.0012    0.0020   -0.0276   -0.0086
           6    0.0075   -0.0042   -0.0091   -0.0101   -0.0017   -0.0021    0.0141    0.0040
           7    0.0630   -0.0022   -0.0231    0.0009   -0.0145    0.0864   -0.0195    0.0217
           8   -0.0074   -0.0225   -0.0386    0.0076   -0.0235   -0.0024   -0.0021    0.0216
           9   -0.0146    0.0361   -0.0425    0.0117    0.0162   -0.0381   -0.0002    0.0254
          10   -0.0417   -0.0173    0.0054   -0.0057    0.0067    0.0208   -0.0034    0.0010
          11   -0.0033    0.0087   -0.0153   -0.0021    0.0915    0.0032   -0.0117    0.0685
          12    0.0069   -0.0260    0.0279   -0.0055    0.0315   -0.0022   -0.0013    0.0004
          13   -0.0289    0.0171   -0.0034    0.0010   -0.0039    0.0084   -0.0013    0.0019
          14    0.0020   -0.0044   -0.0079   -0.0081   -0.0021    0.0012    0.0079    0.0042
          15   -0.0007   -0.0000   -0.0101    0.0032   -0.0038    0.0032   -0.0024    0.0018
          16    0.0050    0.0224    0.0000    0.0063   -0.0018   -0.0178   -0.0028    0.0189
          17   -0.0151   -0.0442    0.0260   -0.0023   -0.0715   -0.0130    0.0100   -0.0210
          18    0.0096    0.0087   -0.0149    0.0079   -0.0359    0.0035   -0.0076    0.0375
          19    0.0299   -0.0074    0.0276   -0.0011   -0.0046   -0.0157    0.0044   -0.0189
          20    0.0049   -0.0004    0.0370   -0.0090    0.0318    0.0081    0.0011   -0.0271
          21   -0.0224   -0.0368    0.0487   -0.0116   -0.0086    0.0143    0.0053   -0.0527
          22   -0.0171   -0.0138   -0.0163    0.0035   -0.0414    0.0155   -0.0054    0.0221
          23   -0.0013   -0.0036    0.0381   -0.0103    0.0223    0.0105    0.0041   -0.0385
          24    0.0100   -0.0014   -0.0077    0.0115   -0.0864   -0.0221   -0.0011    0.0365
          25   -0.0264   -0.0236   -0.0393    0.0023    0.0101   -0.0175   -0.0036    0.0427
          26    0.0197    0.0764   -0.0134    0.0094   -0.0314    0.0004   -0.0051   -0.0114
          27    0.0051   -0.0094   -0.0477    0.0111    0.0069    0.0073   -0.0053    0.0166
          28   -0.1681   -0.0141   -0.0359   -0.0107   -0.0072    0.0819   -0.0114    0.0018
          29   -0.0112    0.0074   -0.0169   -0.0023    0.0850    0.0071   -0.0115    0.0637
          30    0.0498   -0.0408   -0.0045    0.0078    0.0103   -0.0410   -0.0032    0.0545
          31    0.0664    0.0173    0.0440    0.0020    0.0252   -0.0840    0.0168   -0.0433
          32    0.0129    0.0081    0.0328   -0.0024   -0.0484   -0.0067    0.0074   -0.0430
          33   -0.0398   -0.0496    0.0406   -0.0156    0.0283    0.0467   -0.0038   -0.0274
          34   -0.0604    0.0644    0.0344    0.0032    0.0390   -0.1959    0.0305   -0.0294
          35   -0.0217   -0.0372    0.0270   -0.0019   -0.0638   -0.0316    0.0124   -0.0220
          36    0.0479    0.0070    0.0256   -0.0035   -0.0231    0.0945   -0.0184    0.0113
          37   -0.0976   -0.0270   -0.0408   -0.0007   -0.0396    0.0108   -0.0019    0.0126
          38    0.0022    0.0273    0.0059   -0.0023    0.0383    0.0116   -0.0067    0.0162
          39    0.0505    0.0233   -0.0123    0.0165   -0.0702   -0.0173   -0.0093    0.0688
          40    0.0085   -0.0059   -0.0489   -0.0530    0.0062   -0.0026   -0.0067   -0.0439
          41   -0.0087    0.0154   -0.0343   -0.0696   -0.0015   -0.0036   -0.0153   -0.0250
          42   -0.0031    0.0078   -0.0491    0.0790    0.0128    0.0071    0.0329   -0.0452
          43    0.0001   -0.0008   -0.0045    0.0007    0.0007   -0.0000    0.0018   -0.0009
          44    0.0007   -0.0016   -0.0175    0.0131    0.0023    0.0006    0.0031   -0.0028
          45   -0.0031    0.0115    0.0676   -0.0567   -0.0103   -0.0021   -0.0140    0.0096
          46   -0.0016    0.0018    0.0456    0.0390   -0.0016    0.0028    0.0057    0.0058
          47   -0.0016    0.0021    0.0537    0.0485   -0.0016    0.0029    0.0046    0.0067
          48    0.0007   -0.0006   -0.0179   -0.0128    0.0009   -0.0008   -0.0017   -0.0031
          49    0.0387   -0.0208    0.0219    0.0068    0.0450   -0.1247   -0.0145   -0.0185
          50   -0.0124   -0.0626   -0.0113   -0.0008   -0.0352    0.0215   -0.0028    0.0136
          51   -0.0171   -0.0136    0.0401   -0.0155    0.0547    0.0472   -0.0010   -0.0004
          52   -0.0156    0.0495    0.0142   -0.0069   -0.0095    0.0026    0.0268   -0.0057
          53    0.0168   -0.0233   -0.0088   -0.0301    0.0041    0.0040    0.0364    0.0179
          54    0.0156   -0.0151    0.0007    0.0146    0.0048   -0.0135   -0.0197   -0.0128
          55   -0.0537    0.0952    0.0216    0.0733   -0.0293    0.0058   -0.0970   -0.0240
          56    0.0061    0.0170   -0.0074   -0.1965   -0.0115    0.0245    0.2111    0.0637
          57   -0.0111    0.0209    0.0126    0.0484   -0.0133   -0.0060   -0.0811   -0.0132
          58   -0.0056    0.0731    0.0436   -0.1206   -0.0237    0.0370    0.1519    0.0578
          59    0.0198   -0.0489   -0.0173    0.0403    0.0122   -0.0148   -0.0466   -0.0158
          60    0.0171    0.0027    0.0394    0.0928    0.0139   -0.0071   -0.0796   -0.0338
          61   -0.0181    0.0225   -0.0056    0.1024   -0.0033   -0.0264   -0.1567   -0.0650
          62    0.0388   -0.0969   -0.0538    0.0526    0.0278   -0.0450   -0.1201   -0.0406
          63    0.0563   -0.0628   -0.0114   -0.1138    0.0184   -0.0092    0.1589    0.0468


   Root No.      25        26        27        28        29        30        31        32

                25 A      26 A      27 A      28 A      29 A      30 A      31 A      32 A   

                 803.8     872.8     908.8     930.2     964.0     993.2    1028.0    1043.7
  
           1    0.0051   -0.0135   -0.0136   -0.0045    0.0068   -0.0000   -0.0171    0.0110
           2    0.0027    0.0100    0.0072   -0.0154   -0.0027   -0.0003   -0.0041    0.0002
           3   -0.0031   -0.0206   -0.0155    0.0297    0.0006    0.0019    0.0070    0.0000
           4   -0.0018   -0.0006    0.0044    0.0085    0.0095   -0.0147   -0.0264    0.0085
           5   -0.0009   -0.0018   -0.0028    0.0016   -0.0579   -0.0051   -0.0109    0.0033
           6    0.0012    0.0084    0.0047    0.0037    0.0182   -0.0032    0.0022   -0.0076
           7    0.0323   -0.0001    0.0264    0.0064   -0.0074    0.0121    0.0053   -0.0081
           8    0.0025    0.0007    0.0069   -0.0200    0.0014    0.0047    0.0037    0.0011
           9   -0.0123    0.0067   -0.0011   -0.0332    0.0051   -0.0023   -0.0014    0.0055
          10   -0.0261   -0.0004    0.0276    0.0077   -0.0037   -0.0401    0.0092   -0.0273
          11    0.0010   -0.0115   -0.0143    0.0447   -0.0007   -0.0063    0.0026   -0.0070
          12    0.0114    0.0107   -0.0056    0.0011   -0.0008    0.0131   -0.0033    0.0077
          13   -0.0001   -0.0004   -0.0006   -0.0009    0.0007    0.0019    0.0021    0.0009
          14    0.0009    0.0061    0.0027    0.0015    0.0013   -0.0009    0.0043   -0.0071
          15    0.0011    0.0130    0.0047    0.0048   -0.0185   -0.0038    0.0065   -0.0146
          16   -0.0148    0.0143   -0.0362   -0.0213    0.0033   -0.0272    0.0135    0.0232
          17   -0.0045   -0.0125   -0.0253    0.0369    0.0058   -0.0021    0.0093    0.0001
          18    0.0088   -0.0063    0.0191    0.0053   -0.0055    0.0104   -0.0106   -0.0099
          19   -0.0275    0.0076    0.0241    0.0024   -0.0049    0.0266    0.0132    0.0363
          20   -0.0022    0.0125    0.0157   -0.0188   -0.0022    0.0019    0.0008    0.0028
          21    0.0092    0.0169    0.0094   -0.0332    0.0000   -0.0124   -0.0034   -0.0174
          22   -0.0174    0.0025   -0.0242    0.0115    0.0052    0.0200   -0.0272   -0.0404
          23   -0.0022    0.0054    0.0046   -0.0192    0.0011    0.0035   -0.0051   -0.0017
          24    0.0073   -0.0175   -0.0093    0.0355   -0.0008   -0.0102    0.0110    0.0151
          25   -0.0036    0.0096    0.0083   -0.0305    0.0018    0.0014    0.0019    0.0017
          26   -0.0011    0.0071    0.0064   -0.0133   -0.0011    0.0011    0.0027   -0.0006
          27    0.0039    0.0119    0.0162   -0.0309   -0.0010    0.0045    0.0050   -0.0002
          28    0.1680    0.0448   -0.1379   -0.0307    0.0098    0.1807   -0.0447    0.0930
          29    0.0132   -0.0069   -0.0231    0.0385    0.0005    0.0080   -0.0015    0.0016
          30   -0.0637   -0.0132    0.0510    0.0244   -0.0072   -0.0752    0.0086   -0.0386
          31    0.2488   -0.0037   -0.0936   -0.0788    0.0183   -0.1261   -0.0437   -0.1360
          32    0.0181   -0.0020   -0.0002   -0.0281    0.0038   -0.0074   -0.0066    0.0006
          33   -0.1023    0.0283    0.0591    0.0070   -0.0112    0.0472    0.0206    0.0456
          34    0.0914   -0.0766    0.2188    0.0802   -0.0218    0.1147   -0.0699   -0.0791
          35    0.0069   -0.0218    0.0029    0.0421    0.0025    0.0135    0.0009   -0.0103
          36   -0.0345    0.0355   -0.0860   -0.0280    0.0004   -0.0540    0.0099    0.0322
          37    0.1830   -0.0692    0.1008    0.0392   -0.0270   -0.1101    0.1192    0.1554
          38    0.0238   -0.0049    0.0186   -0.0229   -0.0071   -0.0143   -0.0019    0.0247
          39   -0.0727    0.0139   -0.0575    0.0160    0.0094    0.0411   -0.0572   -0.0626
          40   -0.0025   -0.0043   -0.0057    0.0138    0.0039   -0.0018   -0.0010   -0.0002
          41   -0.0018   -0.0031   -0.0032    0.0064    0.0012   -0.0011   -0.0008    0.0000
          42   -0.0024   -0.0024   -0.0057    0.0166    0.0032   -0.0024   -0.0020    0.0003
          43   -0.0001    0.0000   -0.0002    0.0004   -0.0004   -0.0002   -0.0004    0.0003
          44   -0.0001   -0.0001   -0.0000    0.0001    0.0000    0.0000    0.0003   -0.0003
          45    0.0002   -0.0006   -0.0002   -0.0010   -0.0010    0.0004    0.0008   -0.0008
          46    0.0004    0.0002    0.0000    0.0005   -0.0013    0.0000   -0.0001   -0.0002
          47    0.0005    0.0002    0.0001    0.0001   -0.0010    0.0002    0.0003   -0.0005
          48   -0.0002   -0.0002   -0.0002    0.0002    0.0008   -0.0001   -0.0000    0.0001
          49    0.0642    0.2564   -0.0217    0.1441   -0.0366    0.0607    0.1510   -0.0567
          50    0.0033   -0.0342    0.0207   -0.0380    0.0119   -0.0064   -0.0689    0.0365
          51   -0.0035   -0.0522   -0.0061    0.0059    0.0103   -0.0025   -0.0368    0.0237
          52   -0.0042   -0.0297   -0.0144   -0.0193   -0.0396    0.0143    0.0206   -0.0083
          53    0.0019   -0.0022    0.0043   -0.0037    0.0623    0.0021   -0.0036    0.0096
          54   -0.0012   -0.0195   -0.0116   -0.0085   -0.0176    0.0072   -0.0087    0.0216
          55    0.0094    0.0796    0.0346    0.0660    0.0999   -0.0478   -0.1096    0.0773
          56    0.0045    0.0353    0.0009    0.0172   -0.0509   -0.0076   -0.0251    0.0260
          57    0.0109    0.0760    0.0281    0.0635    0.0754   -0.0444   -0.1181    0.0934
          58    0.0074    0.0101    0.0181   -0.0044    0.2101    0.0127    0.0336   -0.0084
          59   -0.0037   -0.0239   -0.0111   -0.0119   -0.0558    0.0039   -0.0050    0.0042
          60   -0.0041   -0.0883   -0.0097   -0.0484    0.3141    0.0521    0.0986   -0.0409
          61   -0.0064   -0.0412   -0.0154   -0.0182    0.0301    0.0221    0.0498   -0.0268
          62   -0.0082   -0.0801   -0.0300   -0.0593    0.0079    0.0481    0.0842   -0.0339
          63   -0.0030   -0.0488   -0.0284   -0.0485   -0.1485    0.0251    0.0049    0.0195


   Root No.      33        34        35        36        37        38        39        40

                33 A      34 A      35 A      36 A      37 A      38 A      39 A      40 A   

                1066.7    1084.4    1141.4    1170.8    1175.3    1218.7    1235.6    1241.2
  
           1   -0.0123    0.0299    0.0060    0.0084    0.0030    0.0024    0.0005   -0.0011
           2   -0.0232   -0.0441    0.0107   -0.0088   -0.0010    0.0250   -0.0072   -0.0023
           3    0.0284    0.0314    0.0267    0.0277   -0.0081    0.0200    0.0015   -0.0025
           4   -0.0219    0.0297    0.0041    0.0013    0.0082    0.0054    0.0056   -0.0077
           5   -0.0005    0.0075    0.0007    0.0044    0.0207    0.0013   -0.0005    0.0060
           6   -0.0270    0.0185    0.0030    0.0008   -0.0050    0.0019    0.0008   -0.0003
           7    0.0136    0.0031    0.0060   -0.0090    0.0005    0.0110    0.0016    0.0002
           8    0.0133    0.0101   -0.0161    0.0126   -0.0058   -0.0067    0.0076    0.0011
           9    0.0083    0.0107    0.0084   -0.0109    0.0026    0.0156   -0.0007   -0.0001
          10    0.0146   -0.0136    0.0032    0.0087   -0.0041   -0.0072    0.0024    0.0004
          11   -0.0084   -0.0095   -0.0355   -0.0280    0.0084   -0.0055   -0.0113   -0.0011
          12   -0.0171   -0.0074   -0.0091   -0.0048    0.0025   -0.0166    0.0082    0.0026
          13    0.0075   -0.0071   -0.0005   -0.0012   -0.0011   -0.0003   -0.0004    0.0001
          14   -0.0180    0.0099    0.0016    0.0012   -0.0013    0.0007   -0.0009    0.0023
          15   -0.0386    0.0237    0.0035    0.0044    0.0038    0.0015   -0.0021    0.0068
          16   -0.0152   -0.0128   -0.0059    0.0035   -0.0016   -0.0085   -0.0000    0.0002
          17    0.0247    0.0443    0.0348   -0.0118    0.0059   -0.0201    0.0027    0.0008
          18   -0.0103   -0.0193   -0.0040    0.0036   -0.0011   -0.0224    0.0036    0.0001
          19   -0.0144    0.0001   -0.0095   -0.0122    0.0030    0.0045   -0.0005    0.0009
          20   -0.0060   -0.0029   -0.0574    0.0073   -0.0013   -0.0022   -0.0030   -0.0009
          21    0.0001   -0.0113   -0.0386   -0.0212    0.0044    0.0113   -0.0050    0.0003
          22    0.0055   -0.0048   -0.0191    0.0020   -0.0007    0.0056   -0.0029   -0.0004
          23    0.0019   -0.0062    0.0533   -0.0037   -0.0006    0.0129    0.0102    0.0034
          24   -0.0102   -0.0080   -0.0309    0.0015   -0.0011    0.0162   -0.0045    0.0006
          25    0.0147    0.0234    0.0095    0.0015    0.0007   -0.0047   -0.0025   -0.0034
          26    0.0094    0.0181    0.0068    0.0005    0.0006   -0.0094   -0.0026   -0.0018
          27    0.0226    0.0358    0.0148    0.0029    0.0014   -0.0101   -0.0043   -0.0053
          28   -0.0839   -0.0096    0.0685   -0.0396    0.0105    0.0658    0.0469    0.0160
          29   -0.0152   -0.0103   -0.0306   -0.0270    0.0081    0.0030   -0.0099   -0.0010
          30   -0.0243   -0.1124    0.2093   -0.0657    0.0010    0.1763    0.1104    0.0365
          31    0.0341   -0.0187   -0.0097   -0.0326    0.0095   -0.0759    0.0155    0.0110
          32    0.0103    0.0059   -0.0510    0.1002   -0.0334    0.2886   -0.0646   -0.0409
          33   -0.0294   -0.0128   -0.0349   -0.0695    0.0214   -0.1347    0.0299    0.0223
          34   -0.0096   -0.0476    0.0980   -0.0338    0.0094   -0.0358   -0.0647   -0.0247
          35    0.0267    0.0414    0.0349   -0.0088    0.0042   -0.0184    0.0057    0.0013
          36   -0.0688   -0.1067    0.2381   -0.0809    0.0217   -0.0952   -0.1652   -0.0584
          37   -0.0343   -0.0047   -0.0119    0.0099   -0.0038   -0.0088    0.0213    0.0087
          38   -0.0430   -0.0757    0.0626    0.1150   -0.0391   -0.0859    0.2245    0.0840
          39   -0.0194   -0.0521   -0.0223    0.0635   -0.0211   -0.0375    0.1090    0.0433
          40   -0.0061   -0.0073   -0.0034   -0.0006   -0.0036   -0.0005    0.0002    0.0015
          41   -0.0031   -0.0025   -0.0014   -0.0007   -0.0012    0.0002   -0.0004    0.0036
          42   -0.0056   -0.0085   -0.0035    0.0008    0.0036    0.0001    0.0005    0.0018
          43    0.0002   -0.0003   -0.0001   -0.0001   -0.0003    0.0001   -0.0000    0.0000
          44   -0.0002    0.0002    0.0000    0.0001    0.0003   -0.0001   -0.0000   -0.0001
          45   -0.0018    0.0003    0.0001   -0.0001   -0.0006    0.0006   -0.0002    0.0010
          46   -0.0005   -0.0005   -0.0001    0.0001    0.0007    0.0005    0.0002   -0.0002
          47   -0.0010   -0.0002    0.0000    0.0003    0.0015    0.0005   -0.0000    0.0006
          48    0.0000   -0.0001   -0.0000   -0.0001   -0.0003   -0.0001   -0.0000    0.0000
          49    0.0914   -0.0758    0.0395    0.0993   -0.0596   -0.0107   -0.0301   -0.0112
          50   -0.0822   -0.0962    0.0378    0.2130   -0.0415   -0.0793   -0.1121   -0.0420
          51   -0.0140   -0.0028    0.0414    0.1509   -0.0281   -0.0435   -0.0595   -0.0258
          52    0.0082   -0.0160   -0.0037   -0.0070   -0.0279   -0.0030   -0.0018    0.0002
          53    0.0213   -0.0109   -0.0025   -0.0105   -0.0366   -0.0035    0.0016   -0.0100
          54    0.0624   -0.0406   -0.0076   -0.0068   -0.0022   -0.0050    0.0117   -0.0454
          55    0.0797   -0.0114   -0.0030   -0.0085    0.0085    0.0074   -0.0346    0.1507
          56    0.0554   -0.0485   -0.0094    0.0256    0.1456   -0.0020    0.0483   -0.1652
          57    0.1248   -0.0420   -0.0084   -0.0065    0.0335    0.0035   -0.0115    0.0645
          58    0.0174   -0.0308    0.0014    0.0419    0.2081    0.0066   -0.0033    0.0325
          59    0.0062    0.0020   -0.0036   -0.0335   -0.1557   -0.0077   -0.0008   -0.0157
          60   -0.0113   -0.0370   -0.0029   -0.0106   -0.0847   -0.0084   -0.0191    0.0479
          61   -0.0111   -0.0254   -0.0032    0.0280    0.1386    0.0017    0.0249   -0.0799
          62    0.0311   -0.0538    0.0022    0.0529    0.2153    0.0055   -0.0235    0.0931
          63    0.0974   -0.0492    0.0019    0.0079    0.0015    0.0040   -0.0842    0.2975


   Root No.      41        42        43        44        45        46        47        48

                41 A      42 A      43 A      44 A      45 A      46 A      47 A      48 A   

                1327.3    1352.9    1417.6    1446.4    1485.8    1538.1    1638.4    1698.7
  
           1   -0.0050   -0.0021    0.0007    0.0057   -0.0136   -0.0136   -0.0074   -0.0058
           2   -0.0333    0.0469    0.0019   -0.0122   -0.0050   -0.0813   -0.1110   -0.0055
           3   -0.0269    0.0212    0.0038    0.0292   -0.0479   -0.0412   -0.0276   -0.0390
           4   -0.0060    0.0078    0.0043    0.0097   -0.0071    0.0073    0.0099   -0.0091
           5   -0.0006    0.0003    0.0011    0.0021   -0.0013    0.0022    0.0029   -0.0027
           6   -0.0022    0.0031    0.0020    0.0043   -0.0034    0.0021    0.0056   -0.0070
           7    0.0007    0.0285    0.0012   -0.0013    0.0079    0.0412   -0.0501    0.0205
           8   -0.0303   -0.0111    0.0064    0.1004   -0.0290    0.0656    0.1214   -0.0208
           9    0.0039    0.0571    0.0010    0.0099    0.0147    0.1095   -0.0878    0.0461
          10   -0.0014   -0.0137    0.0001    0.0123    0.0304   -0.0025   -0.0065    0.0616
          11    0.0135   -0.0114   -0.0044   -0.0473    0.0249    0.0332    0.0527   -0.0474
          12   -0.0074   -0.0379   -0.0001    0.0189    0.0814   -0.0059   -0.0076    0.1419
          13    0.0002   -0.0008   -0.0010   -0.0017    0.0005   -0.0024   -0.0017    0.0005
          14    0.0001    0.0012    0.0017   -0.0006    0.0002    0.0008   -0.0006    0.0011
          15    0.0004    0.0018    0.0040   -0.0004    0.0004    0.0025   -0.0007    0.0024
          16    0.0088   -0.0034    0.0031    0.0357    0.0187   -0.0216    0.0006   -0.0468
          17    0.0112   -0.0065   -0.0004   -0.0113    0.0277    0.0265   -0.1042   -0.0262
          18    0.0208   -0.0085    0.0066    0.0816    0.0502   -0.0451   -0.0226   -0.1185
          19   -0.0054    0.0074   -0.0015   -0.0233    0.0033    0.0120    0.0212   -0.0537
          20    0.0201   -0.0337    0.0009    0.0344   -0.0723   -0.0079   -0.1058    0.0717
          21   -0.0074    0.0078   -0.0031   -0.0482   -0.0086    0.0289    0.0275   -0.1151
          22   -0.0016    0.0010   -0.0011   -0.0121   -0.0216   -0.0040    0.0208    0.0316
          23    0.0096    0.0565    0.0027    0.0029    0.0329   -0.0321    0.1447    0.0525
          24   -0.0008    0.0179   -0.0020   -0.0292   -0.0442   -0.0177    0.0854    0.0894
          25    0.0041   -0.0134   -0.0007   -0.0240   -0.0042   -0.0162    0.0116    0.0014
          26    0.0102   -0.0199   -0.0013   -0.0287    0.0013   -0.0233    0.0094   -0.0008
          27    0.0083   -0.0304   -0.0015   -0.0464   -0.0075   -0.0390    0.0243    0.0009
          28    0.0797   -0.0665   -0.0025    0.0217   -0.0557    0.0257    0.0015   -0.0063
          29    0.0149   -0.0086   -0.0040   -0.0456    0.0101    0.0238    0.0291   -0.0427
          30    0.2000   -0.1408   -0.0048    0.0445   -0.1536    0.0668    0.0094   -0.0357
          31    0.0246    0.0418    0.0018   -0.0011   -0.0615   -0.0102    0.0077    0.0040
          32   -0.0803   -0.1582   -0.0085   -0.0460    0.1695    0.0646   -0.0204   -0.0777
          33    0.0415    0.0742    0.0007   -0.0086   -0.1158   -0.0069    0.0112   -0.0069
          34   -0.0695   -0.0582   -0.0015   -0.0000   -0.0519    0.0476    0.0101    0.0159
          35    0.0087   -0.0044    0.0007   -0.0054    0.0254    0.0188   -0.0579   -0.0264
          36   -0.1569   -0.1432   -0.0052    0.0074   -0.1162    0.1094    0.0099    0.0262
          37   -0.0162   -0.0076   -0.0019   -0.0316   -0.0209    0.0093    0.0013    0.0090
          38   -0.1340   -0.0560   -0.0167   -0.1765    0.0067    0.0996   -0.0754   -0.0857
          39   -0.0766   -0.0379   -0.0124   -0.1213   -0.0460    0.0492   -0.0190   -0.0065
          40   -0.0002   -0.0011    0.0030    0.0026    0.0009   -0.0031   -0.0012   -0.0014
          41   -0.0005   -0.0000   -0.0064    0.0024    0.0004   -0.0008   -0.0001   -0.0007
          42   -0.0005   -0.0006   -0.0023    0.0033    0.0009   -0.0029   -0.0009   -0.0015
          43   -0.0000    0.0002    0.0001    0.0002   -0.0000    0.0002   -0.0000    0.0000
          44    0.0001   -0.0002   -0.0001   -0.0002    0.0000   -0.0003    0.0000   -0.0000
          45   -0.0002    0.0011   -0.0006    0.0010    0.0000    0.0015   -0.0003    0.0003
          46   -0.0003    0.0009   -0.0000    0.0007   -0.0000    0.0012   -0.0001    0.0002
          47   -0.0002    0.0008    0.0001    0.0007   -0.0001    0.0010   -0.0001    0.0002
          48    0.0000   -0.0001    0.0001   -0.0000    0.0000   -0.0001    0.0000   -0.0000
          49    0.0248    0.0353   -0.0077    0.0091   -0.0279    0.0374    0.0274   -0.0413
          50    0.1450    0.0614   -0.0167   -0.1085    0.0067    0.1125   -0.0015   -0.0320
          51    0.0823    0.0230   -0.0063   -0.0406   -0.0213    0.0659    0.0077   -0.0133
          52    0.0028   -0.0020    0.0013   -0.0030    0.0029    0.0006   -0.0027    0.0036
          53    0.0009   -0.0022   -0.0348    0.0005    0.0011   -0.0045   -0.0012    0.0001
          54    0.0020   -0.0024   -0.0391   -0.0009    0.0019   -0.0028   -0.0019    0.0028
          55   -0.0068   -0.0088    0.0591    0.0040    0.0007   -0.0062    0.0029   -0.0046
          56    0.0016   -0.0066    0.3776   -0.0397   -0.0035    0.0112    0.0019    0.0051
          57   -0.0049   -0.0097    0.1079   -0.0047    0.0003   -0.0048   -0.0001   -0.0009
          58   -0.0038    0.0013   -0.2223    0.0240    0.0026   -0.0100   -0.0018   -0.0017
          59    0.0055   -0.0038    0.1168   -0.0178    0.0021    0.0052   -0.0055    0.0075
          60    0.0078   -0.0141    0.2706   -0.0313    0.0051    0.0003   -0.0078    0.0048
          61   -0.0004    0.0024    0.0240   -0.0011   -0.0006    0.0053    0.0006    0.0026
          62    0.0014   -0.0075    0.0366   -0.0044    0.0023   -0.0038   -0.0005    0.0005
          63    0.0043   -0.0150    0.0556   -0.0064    0.0067   -0.0037   -0.0045    0.0043


   Root No.      49        50        51        52        53        54        55        56

                49 A      50 A      51 A      52 A      53 A      54 A      55 A      56 A   

                2116.2    2378.3    2426.4    2601.6    2693.2    2716.0    2717.6    2731.1
  
           1   -0.0126    0.0021    0.0001    0.0018   -0.0029    0.0005   -0.0001    0.0001
           2    0.0028   -0.0005   -0.0006   -0.0009    0.0239   -0.0023   -0.0063   -0.0003
           3   -0.0081    0.0014    0.0003    0.0022   -0.0413    0.0024    0.0032    0.0012
           4   -0.0328    0.0006    0.0033   -0.0061    0.0030   -0.0005   -0.0004   -0.0001
           5    0.1199   -0.0109    0.0002   -0.0044   -0.0005    0.0001    0.0001    0.0000
           6    0.2784   -0.0186   -0.0004   -0.0180   -0.0022    0.0005    0.0004    0.0001
           7    0.0016   -0.0008    0.0002   -0.0006   -0.0006    0.0005   -0.0002    0.0007
           8   -0.0089    0.0013   -0.0001    0.0007    0.0053   -0.0009    0.0006   -0.0023
           9    0.0008   -0.0003    0.0002   -0.0003   -0.0019    0.0012    0.0000    0.0012
          10    0.0025   -0.0003    0.0001   -0.0004   -0.0011    0.0012    0.0034   -0.0002
          11    0.0014   -0.0003   -0.0000   -0.0007   -0.0098   -0.0070   -0.0361   -0.0091
          12    0.0079   -0.0010    0.0000   -0.0005   -0.0062    0.0018    0.0027   -0.0018
          13    0.0399   -0.0018    0.0002   -0.0012   -0.0005    0.0001    0.0001    0.0000
          14   -0.0747    0.0040    0.0004    0.0024    0.0005   -0.0001   -0.0001   -0.0000
          15   -0.1729    0.0094    0.0004    0.0065    0.0012   -0.0003   -0.0002   -0.0001
          16   -0.0010    0.0000   -0.0001    0.0003    0.0004    0.0000    0.0004    0.0028
          17    0.0005   -0.0001    0.0000    0.0004    0.0007   -0.0123   -0.0011   -0.0277
          18   -0.0022    0.0005   -0.0002    0.0003    0.0010   -0.0029    0.0008   -0.0004
          19   -0.0012    0.0001    0.0000   -0.0000    0.0006    0.0023    0.0046   -0.0081
          20    0.0037   -0.0006   -0.0000   -0.0007   -0.0022    0.0074    0.0041   -0.0125
          21   -0.0029    0.0003   -0.0000    0.0001    0.0008    0.0073    0.0123   -0.0221
          22    0.0004   -0.0002    0.0000   -0.0001   -0.0016   -0.0138    0.0046    0.0009
          23   -0.0019    0.0004    0.0000    0.0004    0.0022    0.0159   -0.0040   -0.0067
          24    0.0008   -0.0003    0.0001   -0.0004   -0.0034   -0.0290    0.0100    0.0006
          25    0.0011    0.0005    0.0002    0.0007   -0.0005   -0.0001    0.0000   -0.0001
          26    0.0016   -0.0004    0.0002   -0.0002   -0.0004   -0.0001    0.0001   -0.0001
          27    0.0019    0.0001    0.0000    0.0003   -0.0009   -0.0001    0.0001   -0.0001
          28   -0.0033    0.0001    0.0002   -0.0007   -0.0090   -0.0049   -0.0297   -0.0070
          29   -0.0014    0.0016    0.0001    0.0066    0.1332    0.0858    0.4802    0.1131
          30   -0.0016   -0.0001   -0.0001    0.0000    0.0001    0.0012    0.0024   -0.0001
          31   -0.0012    0.0005   -0.0001    0.0010    0.0054   -0.0425   -0.0553    0.1057
          32   -0.0001    0.0006   -0.0003    0.0018    0.0073   -0.0689   -0.0947    0.1772
          33   -0.0031    0.0016   -0.0004    0.0032    0.0144   -0.1180   -0.1549    0.2945
          34   -0.0010    0.0003   -0.0001    0.0005    0.0023   -0.0155   -0.0007   -0.0330
          35    0.0007   -0.0046    0.0007   -0.0043   -0.0210    0.1717    0.0102    0.3791
          36   -0.0010    0.0000    0.0001   -0.0004   -0.0001    0.0061    0.0004    0.0158
          37   -0.0018    0.0011   -0.0003    0.0018    0.0194    0.1800   -0.0594   -0.0199
          38    0.0009   -0.0012    0.0003   -0.0018   -0.0237   -0.2195    0.0735    0.0225
          39   -0.0023    0.0022   -0.0005    0.0030    0.0412    0.3792   -0.1246   -0.0427
          40   -0.0012   -0.0018   -0.0006   -0.0011    0.0002    0.0000   -0.0000    0.0001
          41    0.0004    0.0036    0.0014    0.0022    0.0002   -0.0000   -0.0000    0.0000
          42   -0.0008    0.0019    0.0004    0.0011    0.0003    0.0000   -0.0001    0.0001
          43   -0.0000    0.0001    0.0001   -0.0002   -0.0000   -0.0000    0.0000    0.0000
          44    0.0001    0.0000   -0.0001    0.0002    0.0000    0.0000   -0.0000    0.0000
          45    0.0003   -0.0005   -0.0000   -0.0003   -0.0000   -0.0000    0.0000   -0.0000
          46    0.0002   -0.0002   -0.0000   -0.0001   -0.0000    0.0000    0.0000   -0.0000
          47    0.0001   -0.0005    0.0000   -0.0005   -0.0000    0.0000    0.0000   -0.0000
          48   -0.0000    0.0001   -0.0000    0.0001    0.0000   -0.0000   -0.0000    0.0000
          49    0.0296   -0.0041   -0.0004   -0.0046    0.0194   -0.0024   -0.0027   -0.0005
          50    0.0030    0.0026    0.0050    0.0104   -0.3340    0.0231    0.0396    0.0085
          51    0.0112   -0.0066   -0.0069   -0.0180    0.5650   -0.0392   -0.0697   -0.0134
          52   -0.0120   -0.0015    0.0425   -0.0189   -0.0003    0.0002    0.0002    0.0000
          53   -0.0285   -0.0462    0.0085    0.0154    0.0003   -0.0001   -0.0002   -0.0001
          54   -0.0450    0.0013   -0.0303   -0.0210   -0.0012    0.0002    0.0003    0.0001
          55   -0.1085   -0.0793   -0.3425   -0.1628   -0.0109    0.0012    0.0024    0.0003
          56   -0.0386   -0.0195   -0.0748   -0.0385   -0.0045    0.0003    0.0006    0.0001
          57    0.0003    0.1188    0.4361    0.1472    0.0126   -0.0015   -0.0028   -0.0003
          58    0.0603    0.2900   -0.0658    0.0526    0.0039   -0.0007   -0.0006    0.0008
          59    0.1561    0.5024   -0.1711    0.0928    0.0059   -0.0015   -0.0014    0.0011
          60   -0.0299   -0.0302   -0.0003   -0.0193   -0.0019    0.0002    0.0002   -0.0002
          61    0.0581   -0.1346   -0.1336    0.4462    0.0114   -0.0022   -0.0037   -0.0009
          62   -0.0411    0.0633    0.0998   -0.2711   -0.0078    0.0014    0.0025    0.0006
          63    0.0140   -0.0712   -0.0831    0.2001    0.0051   -0.0009   -0.0016   -0.0004


   Root No.      57

                57 A   

                2741.8
  
           1   -0.0009
           2    0.0035
           3   -0.0042
           4    0.0009
           5   -0.0004
           6   -0.0007
           7    0.0006
           8   -0.0016
           9    0.0011
          10   -0.0003
          11    0.0121
          12    0.0010
          13   -0.0002
          14    0.0002
          15    0.0005
          16    0.0018
          17   -0.0217
          18   -0.0012
          19    0.0063
          20    0.0104
          21    0.0173
          22    0.0047
          23   -0.0054
          24    0.0099
          25   -0.0003
          26   -0.0004
          27   -0.0006
          28    0.0089
          29   -0.1499
          30   -0.0007
          31   -0.0790
          32   -0.1323
          33   -0.2197
          34   -0.0246
          35    0.2794
          36    0.0113
          37   -0.0568
          38    0.0694
          39   -0.1193
          40    0.0001
          41    0.0001
          42    0.0002
          43    0.0000
          44   -0.0000
          45   -0.0000
          46   -0.0000
          47   -0.0000
          48    0.0000
          49    0.0019
          50   -0.0285
          51    0.0490
          52   -0.0005
          53   -0.0000
          54   -0.0004
          55   -0.0024
          56   -0.0010
          57    0.0033
          58    0.0031
          59    0.0045
          60   -0.0010
          61    0.0051
          62   -0.0033
          63    0.0021


           MASS-WEIGHTED COORDINATE ANALYSIS (NORMAL COORDINATES)


   Root No.       1         2         3         4         5         6         7         8

                 1 A       2 A       3 A       4 A       5 A       6 A       7 A       8 A   

                -428.6    -124.6      19.5      60.7      80.4     100.6     115.1     143.2
  
           1   -0.4922    0.0311    0.0979   -0.1429   -0.0487    0.0533   -0.0172   -0.1514
           2    0.0042   -0.0140    0.0207    0.0080   -0.0246    0.0485   -0.1723   -0.1172
           3    0.0154   -0.0254    0.0074    0.1669   -0.1114   -0.1023   -0.0827    0.0789
           4    0.7677    0.0043    0.0833   -0.1562   -0.0738    0.0524   -0.0273   -0.1156
           5    0.0352    0.2015    0.0685    0.1012   -0.0419   -0.1139   -0.0436   -0.0750
           6    0.0032    0.0469   -0.0887   -0.0396    0.0100    0.1539   -0.1320    0.0618
           7   -0.0839   -0.0312    0.0021    0.0500   -0.0900    0.1342    0.1051   -0.1445
           8   -0.0695   -0.0184    0.0117    0.0338   -0.0281    0.0578   -0.1593   -0.1225
           9   -0.0217   -0.0119   -0.0424   -0.0404   -0.1138   -0.1472   -0.0004    0.1588
          10   -0.1419    0.0512    0.0312   -0.2140    0.0210   -0.0982   -0.1744    0.0624
          11    0.0127   -0.0203   -0.0643   -0.1094   -0.0379    0.0426   -0.0624   -0.0200
          12    0.0560   -0.0322    0.0828    0.2655   -0.1329   -0.0427   -0.0924   -0.0593
          13   -0.1217    0.1077    0.0824   -0.2374   -0.0048    0.1234   -0.0652   -0.2538
          14   -0.0429    0.5663    0.0740    0.3203   -0.0913   -0.1956    0.1127   -0.0357
          15   -0.0780   -0.0677   -0.1036   -0.1502    0.0487    0.2203   -0.2350    0.0215
          16    0.0194   -0.1025   -0.2008    0.2936   -0.1200    0.0321    0.1869   -0.1628
          17   -0.0097   -0.0349   -0.0835   -0.0503   -0.0542    0.0584   -0.0335   -0.0494
          18   -0.0074    0.0163   -0.0054   -0.2099   -0.1122   -0.0969    0.0414    0.2136
          19   -0.0189   -0.0066   -0.1635   -0.0023    0.0196   -0.2855   -0.1791    0.2907
          20    0.0516   -0.0306   -0.1536   -0.1931   -0.0566    0.0288    0.0496    0.0736
          21   -0.0572   -0.0114    0.1173    0.1141   -0.1444    0.0346   -0.0206   -0.1079
          22   -0.0023   -0.0878   -0.2853    0.2769   -0.0644   -0.2172    0.0347    0.1049
          23   -0.0110   -0.0389   -0.1648   -0.1611   -0.0661    0.0358    0.0694    0.0527
          24   -0.0334    0.0121    0.0759   -0.1337   -0.1280    0.0046    0.0311    0.0571
          25    0.0634    0.0360    0.1124    0.0469   -0.1139    0.3030    0.1932   -0.0071
          26   -0.0421   -0.0265    0.1120    0.1232   -0.0141    0.0497   -0.3007   -0.1665
          27    0.0223   -0.0415   -0.1556   -0.0944   -0.1237   -0.2268    0.0357    0.1338
          28   -0.0455    0.0318    0.0399   -0.1284    0.0234   -0.0329   -0.0916    0.0279
          29    0.0063   -0.0050   -0.0169   -0.0358   -0.0102    0.0121   -0.0203   -0.0049
          30    0.0025   -0.0140    0.0337    0.1340   -0.0404   -0.0111   -0.0430   -0.0448
          31    0.0311    0.0025   -0.0653   -0.0144    0.0245   -0.1404   -0.1005    0.1708
          32    0.0088   -0.0105   -0.0641   -0.0811   -0.0191    0.0032    0.0374    0.0458
          33   -0.0220   -0.0042    0.0524    0.0529   -0.0472    0.0340   -0.0025   -0.0773
          34    0.0266   -0.0461   -0.0819    0.1427   -0.0528    0.0366    0.1020   -0.0919
          35   -0.0046   -0.0112   -0.0257   -0.0071   -0.0170    0.0195   -0.0062   -0.0198
          36   -0.0061    0.0092   -0.0125   -0.1156   -0.0321   -0.0365    0.0267    0.1021
          37    0.0067   -0.0393   -0.1285    0.1374   -0.0240   -0.1041    0.0217    0.0542
          38    0.0089   -0.0138   -0.0692   -0.0641   -0.0224    0.0058    0.0466    0.0339
          39   -0.0010    0.0080    0.0304   -0.0758   -0.0365    0.0181    0.0191    0.0163
          40   -0.1205   -0.0124    0.0608    0.0270   -0.2342    0.1791    0.2031    0.2650
          41    0.0634   -0.0294    0.1104    0.0218   -0.0056   -0.0539   -0.2302    0.0976
          42   -0.0169   -0.0210   -0.1052   -0.0235   -0.1032   -0.0534    0.0370   -0.2590
          43    0.0148    0.0104   -0.4001    0.1115    0.5527    0.0421   -0.1919   -0.1010
          44   -0.0017    0.1303   -0.0185   -0.2333    0.3207   -0.1807    0.5169   -0.0378
          45   -0.0044    0.0119   -0.1676   -0.0787    0.0296   -0.0870    0.2128   -0.3205
          46    0.0165    0.0764    0.4471   -0.0519    0.0501   -0.2824   -0.0978    0.0932
          47   -0.0165   -0.1994   -0.0412    0.1679   -0.0319    0.3863    0.0694    0.3672
          48    0.0125   -0.1685    0.4006    0.2040    0.5460    0.1014    0.1570    0.1642
          49    0.1126    0.0049    0.0513   -0.0504   -0.0286    0.0058    0.0081   -0.0478
          50   -0.0029   -0.0097    0.0180    0.0405   -0.0080    0.0204   -0.0674   -0.0524
          51   -0.0226   -0.0099    0.0095    0.0700   -0.0317   -0.0245   -0.0349    0.0101
          52    0.1095   -0.1084    0.0756   -0.0486   -0.1388    0.0433    0.1010   -0.0037
          53    0.0093   -0.3401    0.1023   -0.0071   -0.0283   -0.2087   -0.0721   -0.1629
          54    0.0865    0.3127   -0.0980   -0.0305    0.0292    0.2041   -0.1482    0.0539
          55   -0.0602   -0.0977    0.0220    0.0013   -0.0526   -0.0176    0.0678   -0.0023
          56   -0.0415   -0.0580    0.0229    0.0056   -0.0071   -0.0168   -0.0278    0.0045
          57   -0.0542    0.0331   -0.0292    0.0050   -0.0032    0.0399   -0.0097    0.0231
          58    0.0242    0.1319    0.0047    0.0081   -0.0331    0.0773    0.0085    0.0653
          59    0.0264   -0.1773    0.0367   -0.0122   -0.0109   -0.0937   -0.0101   -0.0836
          60    0.0994    0.3002   -0.0344   -0.0031    0.0195    0.0967   -0.0742    0.0289
          61    0.0310   -0.1483    0.0290   -0.0250   -0.0388   -0.0395    0.0384   -0.0473
          62    0.0390   -0.2829    0.0484   -0.0325   -0.0031   -0.1352   -0.0249   -0.1242
          63    0.1228    0.0909   -0.0237   -0.0329    0.0193    0.0728   -0.0790    0.0129


   Root No.       9        10        11        12        13        14        15        16

                 9 A      10 A      11 A      12 A      13 A      14 A      15 A      16 A   

                 186.9     226.1     253.8     299.3     365.5     382.3     422.9     442.3
  
           1    0.0481   -0.1533    0.0209   -0.1024   -0.2858    0.1924   -0.1359    0.1492
           2   -0.1989   -0.1152   -0.0607   -0.0264    0.0526    0.1256   -0.0944   -0.1431
           3   -0.0995   -0.0839   -0.0144    0.0209   -0.0410   -0.2197    0.1262   -0.0065
           4   -0.0348   -0.1801   -0.0240   -0.0391   -0.0017    0.0383   -0.0813    0.1232
           5    0.0509    0.1729   -0.1126   -0.0173   -0.0247    0.3388    0.5972   -0.0061
           6    0.0719    0.2319   -0.2500   -0.0427    0.0087   -0.1394   -0.2511    0.0621
           7    0.0519    0.0021    0.1113   -0.1553   -0.0656   -0.0717   -0.0089   -0.0876
           8   -0.1957   -0.1024   -0.0461   -0.0075    0.0747    0.1000   -0.0914   -0.1833
           9    0.0441   -0.0818    0.0241    0.0387    0.0312    0.0090    0.0436    0.1516
          10   -0.1737   -0.0380    0.0423   -0.4137    0.0827   -0.0679    0.0240    0.1668
          11   -0.0654   -0.0570   -0.0462   -0.0154   -0.0029    0.0006   -0.0398   -0.0164
          12   -0.1169   -0.1763   -0.0276    0.1333   -0.1339   -0.0722    0.0375   -0.1316
          13    0.2741   -0.2788   -0.0161    0.5551    0.1584   -0.1889    0.0877   -0.2016
          14    0.0826    0.1853   -0.1681    0.0362    0.0888   -0.2501   -0.2858    0.0448
          15    0.1419    0.2557   -0.2732    0.0674    0.0229    0.0489    0.1757   -0.0153
          16    0.2632   -0.1041   -0.0064   -0.3366    0.1134   -0.1928    0.1683   -0.0669
          17   -0.0422   -0.0838   -0.0651   -0.0293   -0.0690   -0.0816    0.0232   -0.1184
          18    0.0422   -0.0230    0.0742    0.1116   -0.1659   -0.0650    0.0385    0.1748
          19   -0.2967    0.0462    0.0951    0.0709   -0.0217   -0.1853    0.1045   -0.2397
          20    0.0550   -0.0138   -0.0250    0.0286   -0.1198   -0.1462    0.0589    0.0257
          21    0.0182   -0.1915   -0.0382   -0.0718   -0.1633   -0.1000    0.0672    0.0927
          22    0.0562   -0.0920   -0.0138    0.1920   -0.1997    0.1885   -0.0694    0.2559
          23    0.0902   -0.0288   -0.0418    0.0366   -0.1505   -0.1104    0.0510    0.0792
          24    0.0373   -0.0651    0.0596   -0.1198   -0.0330   -0.2129    0.1368   -0.0185
          25   -0.1938    0.3880    0.3212    0.1269   -0.2067   -0.1433    0.1101    0.0300
          26   -0.2932   -0.1599    0.0089    0.0396    0.0450   -0.0953    0.0119    0.3587
          27    0.1958   -0.2236   -0.0888   -0.1272    0.1937    0.2226   -0.1252   -0.2492
          28   -0.0879   -0.0021    0.0135   -0.2824    0.1249   -0.0529    0.0339    0.1357
          29   -0.0213   -0.0158   -0.0136   -0.0148    0.0051   -0.0030   -0.0089    0.0012
          30   -0.0579   -0.0679   -0.0129    0.0970   -0.0514    0.0332   -0.0208   -0.1026
          31   -0.1819    0.0582    0.0572    0.0715    0.0380   -0.1413    0.0784   -0.2131
          32    0.0406    0.0106    0.0017    0.0129   -0.0414   -0.0615    0.0348    0.0193
          33    0.0244   -0.0803   -0.0268   -0.0419   -0.0568    0.0157   -0.0099    0.0715
          34    0.1508   -0.0440   -0.0200   -0.1980    0.0962   -0.1392    0.1308   -0.0123
          35   -0.0057   -0.0261   -0.0203   -0.0188   -0.0117   -0.0296    0.0144   -0.0341
          36    0.0228    0.0112    0.0319    0.0756   -0.1157   -0.0340    0.0105    0.0985
          37    0.0439   -0.0464   -0.0272    0.1695   -0.1383    0.1812   -0.0824    0.2515
          38    0.0606    0.0024   -0.0059    0.0263   -0.0487   -0.0168    0.0085    0.0668
          39    0.0178   -0.0030    0.0315   -0.0796    0.0254   -0.1146    0.0663   -0.0627
          40   -0.1721   -0.0300   -0.1212    0.1114    0.4044    0.1290    0.0479    0.0972
          41    0.3504    0.0916    0.4173   -0.1123   -0.2299    0.0757   -0.1557   -0.2105
          42   -0.0874    0.1606    0.3101    0.0014    0.0051    0.1057   -0.0683   -0.0625
          43    0.0406    0.0339    0.0084    0.0040   -0.0302   -0.0297    0.0021    0.0108
          44   -0.1389   -0.1306   -0.0739   -0.0105   -0.0601   -0.0565    0.0380    0.0047
          45   -0.2025    0.1750    0.2058    0.0523    0.2377    0.2274   -0.1133   -0.0152
          46    0.2105    0.1329    0.0581    0.0081    0.1568    0.1096   -0.1033   -0.0167
          47    0.0638   -0.0293    0.1613    0.0235    0.2256    0.1381   -0.1184    0.0077
          48    0.0010   -0.1293   -0.0710   -0.0261   -0.0750   -0.0239    0.0487   -0.0132
          49    0.0128   -0.0530    0.0024   -0.0062   -0.0870    0.0977   -0.0178    0.0839
          50   -0.0888   -0.0417   -0.0253    0.0023    0.0073    0.0182   -0.0346   -0.1102
          51   -0.0451   -0.0300   -0.0091    0.0115   -0.0210   -0.0685    0.0268   -0.0460
          52   -0.1263    0.1163   -0.3785   -0.0990   -0.3130    0.1360   -0.1416   -0.2312
          53    0.1191    0.2752   -0.1477    0.0620    0.1192    0.0082    0.2114    0.1448
          54    0.0800    0.0823   -0.0984   -0.0451    0.0272   -0.0098   -0.0897    0.1077
          55   -0.0547    0.1296   -0.2196   -0.0230   -0.1494    0.0084   -0.0902   -0.1574
          56    0.0414    0.0474   -0.0042    0.0024    0.0045    0.0183    0.0164   -0.0024
          57    0.0041    0.1026   -0.1310   -0.0065   -0.0230   -0.0264   -0.0623   -0.0322
          58   -0.0392   -0.0194   -0.1117   -0.0438   -0.0878    0.1628    0.1359   -0.0755
          59    0.0320    0.1056   -0.0515    0.0318    0.0638   -0.0633   -0.0114    0.0724
          60    0.0215   -0.0491    0.0393   -0.0550   -0.0707    0.1866    0.2008   -0.0061
          61   -0.0308    0.0989   -0.1489   -0.0045   -0.0608   -0.0645   -0.1407   -0.0384
          62    0.0581    0.1281   -0.0426    0.0522    0.1113   -0.1737   -0.1173    0.1465
          63    0.0468   -0.0517    0.0495   -0.0120    0.0814   -0.0320   -0.0526    0.1339


   Root No.      17        18        19        20        21        22        23        24

                17 A      18 A      19 A      20 A      21 A      22 A      23 A      24 A   

                 470.0     479.8     543.1     575.6     599.3     671.4     688.3     732.7
  
           1    0.3097   -0.1192    0.1072   -0.0052    0.2034   -0.3387    0.0415    0.0062
           2   -0.0722   -0.1587   -0.1375    0.0309   -0.0506   -0.0920   -0.0388    0.2055
           3   -0.1212    0.0689    0.1030   -0.0447    0.3656    0.1945   -0.0248    0.0556
           4    0.1151   -0.0674    0.0120   -0.0122    0.0215   -0.0332    0.0006   -0.0350
           5    0.0426   -0.0341   -0.0042    0.0809    0.0060    0.0132   -0.1875   -0.0459
           6    0.0528   -0.0262   -0.0355   -0.0399   -0.0083   -0.0137    0.0958    0.0213
           7    0.4430   -0.0139   -0.0901    0.0037   -0.0723    0.5621   -0.1323    0.1162
           8   -0.0517   -0.1403   -0.1503    0.0298   -0.1172   -0.0154   -0.0141    0.1157
           9   -0.1030    0.2248   -0.1654    0.0462    0.0808   -0.2481   -0.0016    0.1360
          10   -0.2931   -0.1079    0.0209   -0.0225    0.0333    0.1352   -0.0231    0.0055
          11   -0.0229    0.0541   -0.0596   -0.0081    0.4562    0.0209   -0.0799    0.3671
          12    0.0485   -0.1616    0.1088   -0.0217    0.1573   -0.0143   -0.0086    0.0022
          13   -0.2348    0.1230   -0.0154    0.0048   -0.0225    0.0627   -0.0104    0.0116
          14    0.0163   -0.0318   -0.0354   -0.0366   -0.0121    0.0093    0.0621    0.0260
          15   -0.0059   -0.0003   -0.0456    0.0144   -0.0217    0.0238   -0.0189    0.0113
          16    0.0351    0.1395    0.0002    0.0249   -0.0090   -0.1158   -0.0188    0.1013
          17   -0.1063   -0.2751    0.1014   -0.0092   -0.3568   -0.0843    0.0679   -0.1126
          18    0.0672    0.0544   -0.0579    0.0310   -0.1791    0.0230   -0.0517    0.2013
          19    0.2102   -0.0460    0.1077   -0.0041   -0.0229   -0.1021    0.0299   -0.1013
          20    0.0342   -0.0023    0.1442   -0.0354    0.1585    0.0527    0.0077   -0.1455
          21   -0.1575   -0.2288    0.1895   -0.0455   -0.0431    0.0930    0.0359   -0.2826
          22   -0.1205   -0.0860   -0.0636    0.0136   -0.2064    0.1008   -0.0368    0.1182
          23   -0.0091   -0.0225    0.1483   -0.0405    0.1113    0.0683    0.0277   -0.2064
          24    0.0703   -0.0087   -0.0299    0.0453   -0.4312   -0.1436   -0.0076    0.1959
          25   -0.2140   -0.1695   -0.1766    0.0106    0.0579   -0.1315   -0.0286    0.2644
          26    0.1603    0.5487   -0.0604    0.0426   -0.1808    0.0029   -0.0402   -0.0703
          27    0.0412   -0.0677   -0.2145    0.0506    0.0400    0.0547   -0.0416    0.1027
          28   -0.3425   -0.0255   -0.0405   -0.0122   -0.0105    0.1544   -0.0225    0.0027
          29   -0.0228    0.0133   -0.0191   -0.0026    0.1228    0.0134   -0.0227    0.0989
          30    0.1014   -0.0736   -0.0051    0.0089    0.0149   -0.0772   -0.0062    0.0847
          31    0.1352    0.0311    0.0496    0.0022    0.0365   -0.1583    0.0331   -0.0672
          32    0.0263    0.0147    0.0370   -0.0028   -0.0700   -0.0127    0.0146   -0.0668
          33   -0.0811   -0.0895    0.0458   -0.0178    0.0409    0.0880   -0.0075   -0.0426
          34   -0.1231    0.1162    0.0388    0.0036    0.0564   -0.3692    0.0601   -0.0456
          35   -0.0442   -0.0671    0.0304   -0.0021   -0.0922   -0.0595    0.0245   -0.0341
          36    0.0976    0.0126    0.0289   -0.0040   -0.0334    0.1781   -0.0363    0.0176
          37   -0.1987   -0.0486   -0.0460   -0.0008   -0.0573    0.0203   -0.0038    0.0196
          38    0.0045    0.0492    0.0067   -0.0026    0.0554    0.0219   -0.0132    0.0252
          39    0.1028    0.0421   -0.0139    0.0189   -0.1014   -0.0326   -0.0182    0.1069
          40    0.0895   -0.0546   -0.2857   -0.3128    0.0465   -0.0252   -0.0682   -0.3527
          41   -0.0918    0.1438   -0.2004   -0.4105   -0.0115   -0.0347   -0.1561   -0.2006
          42   -0.0327    0.0725   -0.2865    0.4664    0.0957    0.0697    0.3359   -0.3629
          43    0.0016   -0.0086   -0.0302    0.0050    0.0058   -0.0002    0.0216   -0.0083
          44    0.0084   -0.0167   -0.1171    0.0888    0.0193    0.0067    0.0361   -0.0255
          45   -0.0371    0.1228    0.4526   -0.3838   -0.0880   -0.0235   -0.1638    0.0884
          46   -0.0189    0.0192    0.3054    0.2638   -0.0136    0.0312    0.0662    0.0539
[...]
 REDUCED MASS        8.3911         Al14 -- H 20         +11.9% ( 66.6%)      3.3%
 EFFECTIVE MASS     27.2763         Al14 -- C 18         +10.4% ( 62.2%)      0.5%
 FORCE CONSTANT      1.6378

 VIBRATION         21   21A           ATOM PAIR      ENERGY CONTRIBUTION    RADIAL
 FREQUENCY           599.27         C  6 -- C  8         +12.0% ( 99.6%)      0.1%
 TRANSITION DIPOLE   0.8309         C  1 -- C  4         +11.7% ( 98.3%)      0.2%
 TRAVEL (Ang.)       0.2323         C  7 -- C  8         +11.2% ( 96.1%)      0.8%
 REDUCED MASS        2.0854         C  4 -- C  7          +9.8% ( 89.9%)      0.7%
 EFFECTIVE MASS     17.6347
 FORCE CONSTANT      0.4413

 VIBRATION         22   22A           ATOM PAIR      ENERGY CONTRIBUTION    RADIAL
 FREQUENCY           671.37         C  1 -- C  3         +22.9% ( 75.2%)      0.1%
 TRANSITION DIPOLE   0.7949         C  3 -- C  6         +15.9% ( 62.6%)      0.0%
 TRAVEL (Ang.)       0.2186         C  3 -- O  9         +14.1% ( 59.0%)      0.1%
 REDUCED MASS        2.1010         C  6 -- H 12          +7.6% ( 43.3%)      3.2%
 EFFECTIVE MASS     10.0897
 FORCE CONSTANT      0.5579

 VIBRATION         23   23A           ATOM PAIR      ENERGY CONTRIBUTION    RADIAL
 FREQUENCY           688.27         C 18 -- H 21         +18.3% ( 87.5%)      0.2%
 TRANSITION DIPOLE   1.4597         Al14 -- H 19         +17.2% ( 84.8%)     55.9%
 TRAVEL (Ang.)       0.3321         C 18 -- H 19         +15.0% ( 79.3%)     23.9%
 REDUCED MASS        0.8884         Al14 -- H 20         +12.2% ( 71.4%)     63.4%
 EFFECTIVE MASS      8.3006         C 18 -- H 20         +10.1% ( 65.0%)     45.8%
 FORCE CONSTANT      0.2480

 VIBRATION         24   24A           ATOM PAIR      ENERGY CONTRIBUTION    RADIAL
 FREQUENCY           732.70         C  4 -- C  7         +10.5% ( 72.3%)      0.0%
 TRANSITION DIPOLE   3.4158         C  7 -- C  8          +9.0% ( 67.0%)      1.7%
 TRAVEL (Ang.)       0.1732         O  9 -- Al14          +7.8% ( 62.4%)     98.7%
 REDUCED MASS        3.0678         C  1 -- C  4          +7.1% ( 59.3%)      4.2%
 EFFECTIVE MASS     18.0129
 FORCE CONSTANT      0.9704

 VIBRATION         25   25A           ATOM PAIR      ENERGY CONTRIBUTION    RADIAL
 FREQUENCY           803.84         C  7 -- H 11         +35.1% ( 71.3%)      0.0%
 TRANSITION DIPOLE   1.2327         C  8 -- H 13         +19.5% ( 53.2%)      0.0%
 TRAVEL (Ang.)       0.5095         C  4 -- H 10         +19.2% ( 52.8%)      0.1%
 REDUCED MASS        0.3232         C  6 -- H 12          +5.8% ( 29.0%)      0.2%
 EFFECTIVE MASS      2.6851
 FORCE CONSTANT      0.1230

 VIBRATION         26   26A           ATOM PAIR      ENERGY CONTRIBUTION    RADIAL
 FREQUENCY           872.79         C  1 -- H 17         +20.6% ( 69.1%)      3.2%
 TRANSITION DIPOLE   2.0405         C 18 -- H 19         +10.4% ( 49.1%)      0.4%
 TRAVEL (Ang.)       0.4594         C 18 -- H 20          +6.8% ( 39.7%)     11.6%
 REDUCED MASS        0.3661         C 18 -- H 21          +6.2% ( 38.0%)     93.1%
 EFFECTIVE MASS      5.1503
 FORCE CONSTANT      0.1643

 VIBRATION         27   27A           ATOM PAIR      ENERGY CONTRIBUTION    RADIAL
 FREQUENCY           908.78         C  6 -- H 12         +23.4% ( 65.2%)      1.9%
 TRANSITION DIPOLE   1.2040         C  4 -- H 10         +10.4% ( 43.5%)      2.7%
 TRAVEL (Ang.)       0.3837         C  3 -- C  6          +7.8% ( 37.6%)      1.4%
 REDUCED MASS        0.5040         C  8 -- H 13          +6.9% ( 35.3%)      7.0%
 EFFECTIVE MASS      5.6746
 FORCE CONSTANT      0.2453

 VIBRATION         28   28A           ATOM PAIR      ENERGY CONTRIBUTION    RADIAL
 FREQUENCY           930.20         C  3 -- C  6          +8.5% ( 49.7%)      1.5%
 TRANSITION DIPOLE   3.1983         O  9 -- Al14          +8.5% ( 49.7%)     99.0%
 TRAVEL (Ang.)       0.2744         C  4 -- C  7          +8.4% ( 49.2%)      0.1%
 REDUCED MASS        0.9629         C  6 -- C  8          +8.1% ( 48.5%)      0.4%
 EFFECTIVE MASS     11.4009
 FORCE CONSTANT      0.4909

 VIBRATION         29   29A           ATOM PAIR      ENERGY CONTRIBUTION    RADIAL
 FREQUENCY           964.05         C 18 -- H 20         +27.9% ( 77.6%)      4.2%
 TRANSITION DIPOLE   1.4672         Al14 -- H 20         +17.4% ( 61.3%)      0.4%
 TRAVEL (Ang.)       0.2580         C  2 -- C 18         +13.4% ( 53.9%)      0.1%
 REDUCED MASS        1.0504         C 18 -- H 19         +12.4% ( 51.7%)      0.2%
 EFFECTIVE MASS      4.9578         C 18 -- H 21         +10.5% ( 47.5%)     59.0%
 FORCE CONSTANT      0.5752

 VIBRATION         30   30A           ATOM PAIR      ENERGY CONTRIBUTION    RADIAL
 FREQUENCY           993.22         C  4 -- H 10         +26.5% ( 57.9%)      0.1%
 TRANSITION DIPOLE   0.7737         C  7 -- H 11         +12.1% ( 39.1%)      0.0%
 TRAVEL (Ang.)       0.3898         C  6 -- H 12         +10.9% ( 37.1%)      0.0%
 REDUCED MASS        0.4468         C  8 -- H 13          +9.2% ( 34.1%)      0.1%
 EFFECTIVE MASS      3.9386
 FORCE CONSTANT      0.2597

 VIBRATION         31   31A           ATOM PAIR      ENERGY CONTRIBUTION    RADIAL
 FREQUENCY          1028.04         C 18 -- H 19         +15.6% ( 46.3%)      6.6%
 TRANSITION DIPOLE   0.7787         C  1 -- H 17         +13.5% ( 43.2%)      0.9%
 TRAVEL (Ang.)       0.4919         Al14 -- H 19         +13.4% ( 43.0%)      0.4%
 REDUCED MASS        0.2711         C  8 -- H 13         +12.1% ( 40.8%)      0.0%
 EFFECTIVE MASS      3.4367
 FORCE CONSTANT      0.1688

 VIBRATION         32   32A           ATOM PAIR      ENERGY CONTRIBUTION    RADIAL
 FREQUENCY          1043.67         C  8 -- H 13         +17.3% ( 50.0%)      0.1%
 TRANSITION DIPOLE   0.7286         C  7 -- H 11         +12.5% ( 42.4%)      0.0%
 TRAVEL (Ang.)       0.3451         C 18 -- H 19          +8.3% ( 34.6%)     24.4%
 REDUCED MASS        0.5425         C  7 -- C  8          +8.1% ( 34.2%)      0.2%
 EFFECTIVE MASS      5.2123
 FORCE CONSTANT      0.3481

 VIBRATION         33   33A           ATOM PAIR      ENERGY CONTRIBUTION    RADIAL
 FREQUENCY          1066.68         C  2 -- C 18         +15.9% ( 64.0%)     98.1%
 TRANSITION DIPOLE   1.3308         C 18 -- H 19         +10.9% ( 53.1%)     88.1%
 TRAVEL (Ang.)       0.2337         Al14 -- C 18          +9.0% ( 48.3%)     28.1%
 REDUCED MASS        1.1578         C 18 -- H 20          +9.0% ( 48.2%)      3.0%
 EFFECTIVE MASS      9.9796
 FORCE CONSTANT      0.7761

 VIBRATION         34   34A           ATOM PAIR      ENERGY CONTRIBUTION    RADIAL
 FREQUENCY          1084.38         C  1 -- C  2         +10.1% ( 49.6%)      0.0%
 TRANSITION DIPOLE   1.6666         C  1 -- C  3          +8.7% ( 46.1%)     79.8%
 TRAVEL (Ang.)       0.2285         C  1 -- C  4          +8.4% ( 45.3%)     17.7%
 REDUCED MASS        1.1912         C  2 -- C 18          +8.0% ( 44.1%)     89.1%
 EFFECTIVE MASS     10.8293
 FORCE CONSTANT      0.8252

 VIBRATION         35   35A           ATOM PAIR      ENERGY CONTRIBUTION    RADIAL
 FREQUENCY          1141.37         C  7 -- C  8         +23.1% ( 71.8%)     99.8%
 TRANSITION DIPOLE   0.5317         C  6 -- H 12         +13.7% ( 55.2%)      8.3%
 TRAVEL (Ang.)       0.2431         C  4 -- H 10         +10.9% ( 49.2%)     11.7%
 REDUCED MASS        1.0000         C  4 -- C  7         +10.6% ( 48.6%)     19.0%
 EFFECTIVE MASS      8.3374
 FORCE CONSTANT      0.7676

 VIBRATION         36   36A           ATOM PAIR      ENERGY CONTRIBUTION    RADIAL
 FREQUENCY          1170.81         C  1 -- H 17         +31.5% ( 70.8%)      8.6%
 TRANSITION DIPOLE   0.6207         C  4 -- C  7          +9.1% ( 38.1%)     74.4%
 TRAVEL (Ang.)       0.4001         C  7 -- H 11          +8.3% ( 36.3%)     31.9%
 REDUCED MASS        0.3598         C  1 -- C  4          +8.2% ( 36.2%)     89.5%
 EFFECTIVE MASS      4.0493
 FORCE CONSTANT      0.2906

 VIBRATION         37   37A           ATOM PAIR      ENERGY CONTRIBUTION    RADIAL
 FREQUENCY          1175.32         C 18 -- H 20         +22.7% ( 62.0%)     14.9%
 TRANSITION DIPOLE   1.2424         Al14 -- H 20         +20.8% ( 59.3%)     97.3%
 TRAVEL (Ang.)       0.3664         C 18 -- H 21         +18.6% ( 56.1%)      0.0%
 REDUCED MASS        0.4275         C 18 -- H 19         +13.8% ( 48.3%)      5.7%
 EFFECTIVE MASS      2.6437
 FORCE CONSTANT      0.3479

 VIBRATION         38   38A           ATOM PAIR      ENERGY CONTRIBUTION    RADIAL
 FREQUENCY          1218.70         C  7 -- H 11         +33.1% ( 73.5%)      0.4%
 TRANSITION DIPOLE   1.0476         C  4 -- H 10         +12.8% ( 45.6%)      0.5%
 TRAVEL (Ang.)       0.3817         C  6 -- C  8          +8.0% ( 36.1%)     98.4%
 REDUCED MASS        0.3797         C  1 -- H 17          +6.8% ( 33.2%)      0.4%
 EFFECTIVE MASS      3.6434
 FORCE CONSTANT      0.3323

 VIBRATION         39   39A           ATOM PAIR      ENERGY CONTRIBUTION    RADIAL
 FREQUENCY          1235.57         C  8 -- H 13         +37.9% ( 63.9%)      0.9%
 TRANSITION DIPOLE   0.2300         C  6 -- H 12         +19.1% ( 45.4%)      0.1%
 TRAVEL (Ang.)       0.4689         C  1 -- H 17          +9.5% ( 32.0%)      1.0%
 REDUCED MASS        0.2482         C  4 -- H 10          +9.3% ( 31.6%)      8.2%
 EFFECTIVE MASS      1.6862
 FORCE CONSTANT      0.2233

 VIBRATION         40   40A           ATOM PAIR      ENERGY CONTRIBUTION    RADIAL
 FREQUENCY          1241.19         C 18 -- H 21         +38.6% ( 72.4%)      0.1%
 TRANSITION DIPOLE   1.3358         C 18 -- H 19         +18.2% ( 49.7%)      8.4%
 TRAVEL (Ang.)       0.3311         Al14 -- H 19         +13.7% ( 43.2%)     69.7%
 REDUCED MASS        0.4957         C 18 -- H 20          +7.8% ( 32.6%)      0.2%
 EFFECTIVE MASS      2.3667
 FORCE CONSTANT      0.4499

 VIBRATION         41   41A           ATOM PAIR      ENERGY CONTRIBUTION    RADIAL
 FREQUENCY          1327.32         C  1 -- H 17         +17.7% ( 50.5%)      0.3%
 TRANSITION DIPOLE   0.5631         C  4 -- H 10         +15.8% ( 47.7%)      2.1%
 TRAVEL (Ang.)       0.3755         C  6 -- H 12         +12.9% ( 43.0%)      1.5%
 REDUCED MASS        0.3604         C  8 -- H 13          +8.4% ( 34.8%)      0.8%
 EFFECTIVE MASS      3.4340
 FORCE CONSTANT      0.3741

 VIBRATION         42   42A           ATOM PAIR      ENERGY CONTRIBUTION    RADIAL
 FREQUENCY          1352.90         C  3 -- O  9         +13.4% ( 53.2%)     83.3%
 TRANSITION DIPOLE   2.5955         C  1 -- C  3         +12.4% ( 51.2%)     67.3%
 TRAVEL (Ang.)       0.2156         C  7 -- C  8         +10.5% ( 47.1%)     99.2%
 REDUCED MASS        1.0725         C  1 -- C  4          +9.5% ( 44.8%)     91.5%
 EFFECTIVE MASS      8.3962
 FORCE CONSTANT      1.1565

 VIBRATION         43   43A           ATOM PAIR      ENERGY CONTRIBUTION    RADIAL
 FREQUENCY          1417.64         C 18 -- H 19         +26.5% ( 65.9%)      2.4%
 TRANSITION DIPOLE   0.5058         C 18 -- H 20         +22.5% ( 60.8%)      1.5%
 TRAVEL (Ang.)       0.3083         Al14 -- H 19         +21.0% ( 58.7%)     88.1%
 REDUCED MASS        0.5004         Al14 -- H 20         +17.5% ( 53.6%)     92.9%
 EFFECTIVE MASS      1.9572
 FORCE CONSTANT      0.5925

 VIBRATION         44   44A           ATOM PAIR      ENERGY CONTRIBUTION    RADIAL
 FREQUENCY          1446.44         C  3 -- C  6         +19.2% ( 62.8%)     83.6%
 TRANSITION DIPOLE   0.6938         C  3 -- O  9         +16.4% ( 58.0%)     71.5%
 TRAVEL (Ang.)       0.1573         C  1 -- C  3         +11.6% ( 48.7%)     96.8%
 REDUCED MASS        1.8849         C  6 -- C  8         +10.7% ( 46.9%)     61.6%
 EFFECTIVE MASS     10.6778
 FORCE CONSTANT      2.3235

 VIBRATION         45   45A           ATOM PAIR      ENERGY CONTRIBUTION    RADIAL
 FREQUENCY          1485.85         C  1 -- C  4         +15.5% ( 54.4%)     91.5%
 TRANSITION DIPOLE   0.4544         C  4 -- C  7         +14.4% ( 52.5%)      5.8%
 TRAVEL (Ang.)       0.1741         C  4 -- H 10         +13.1% ( 50.1%)      2.2%
 REDUCED MASS        1.4978         C  7 -- C  8         +11.8% ( 47.5%)     87.0%
 EFFECTIVE MASS      9.0550         C  7 -- H 11         +10.8% ( 45.5%)      6.9%
 FORCE CONSTANT      1.9483         C  6 -- C  8         +10.3% ( 44.4%)     68.0%

 VIBRATION         46   46A           ATOM PAIR      ENERGY CONTRIBUTION    RADIAL
 FREQUENCY          1538.13         C  1 -- C  3         +24.0% ( 72.6%)     40.9%
 TRANSITION DIPOLE   6.0230         C  3 -- O  9         +20.1% ( 66.5%)     99.9%
 TRAVEL (Ang.)       0.1209         C  3 -- C  6         +18.4% ( 63.6%)     52.4%
 REDUCED MASS        3.0001         C  1 -- H 17          +7.9% ( 41.6%)      0.2%
 EFFECTIVE MASS     10.8488
 FORCE CONSTANT      4.1819

 VIBRATION         47   47A           ATOM PAIR      ENERGY CONTRIBUTION    RADIAL
 FREQUENCY          1638.43         C  6 -- C  8         +16.0% ( 57.7%)     66.8%
 TRANSITION DIPOLE   4.2674         C  7 -- C  8         +15.0% ( 55.9%)     95.1%
 TRAVEL (Ang.)       0.1281         C  1 -- C  3         +14.2% ( 54.3%)     93.6%
 REDUCED MASS        2.5066         C  3 -- C  6         +13.0% ( 51.9%)     58.4%
 EFFECTIVE MASS     11.9615
 FORCE CONSTANT      3.9646

 VIBRATION         48   48A           ATOM PAIR      ENERGY CONTRIBUTION    RADIAL
 FREQUENCY          1698.72         C  4 -- C  7         +25.2% ( 71.1%)     98.6%
 TRANSITION DIPOLE   4.7665         C  6 -- C  8         +14.3% ( 53.6%)     95.7%
 TRAVEL (Ang.)       0.1198         C  7 -- C  8         +11.9% ( 48.9%)      1.0%
 REDUCED MASS        2.7665         C  1 -- C  4         +10.7% ( 46.3%)     56.3%
 EFFECTIVE MASS     11.7785
 FORCE CONSTANT      4.7034

 VIBRATION         49   49A           ATOM PAIR      ENERGY CONTRIBUTION    RADIAL
 FREQUENCY          2116.20         C  2 -- O  5         +50.0% ( 97.1%)     99.5%
 TRANSITION DIPOLE   5.4839         C  2 -- C 18         +23.7% ( 66.8%)     87.1%
 TRAVEL (Ang.)       0.0707         C  1 -- C  2         +22.1% ( 64.5%)      0.4%
 REDUCED MASS        6.3672         C 18 -- H 20          +1.5% ( 16.8%)     73.4%
 EFFECTIVE MASS     12.9919
 FORCE CONSTANT     16.8001

 VIBRATION         50   50A           ATOM PAIR      ENERGY CONTRIBUTION    RADIAL
 FREQUENCY          2378.32         C 18 -- H 20         +46.2% ( 92.7%)     99.3%
 TRANSITION DIPOLE   1.5801         Al14 -- H 20         +40.7% ( 87.1%)      0.3%
 TRAVEL (Ang.)       0.2002         C 18 -- H 21          +5.1% ( 30.9%)     85.1%
 REDUCED MASS        0.7076         C 18 -- H 19          +2.9% ( 23.3%)     35.8%
 EFFECTIVE MASS      1.5503
 FORCE CONSTANT      2.3582

 VIBRATION         51   51A           ATOM PAIR      ENERGY CONTRIBUTION    RADIAL
 FREQUENCY          2426.38         C 18 -- H 19         +45.0% ( 91.5%)     99.9%
 TRANSITION DIPOLE   1.5128         Al14 -- H 19         +38.5% ( 84.7%)      0.3%
 TRAVEL (Ang.)       0.2045         C 18 -- H 21          +5.9% ( 33.1%)     72.5%
 REDUCED MASS        0.6648         C 18 -- H 20          +5.5% ( 31.9%)     84.6%
 EFFECTIVE MASS      1.4774
 FORCE CONSTANT      2.3059

 VIBRATION         52   52A           ATOM PAIR      ENERGY CONTRIBUTION    RADIAL
 FREQUENCY          2601.57         C 18 -- H 21         +73.8% ( 89.3%)     98.7%
 TRANSITION DIPOLE   2.0037         C 18 -- H 19         +10.2% ( 33.2%)     87.0%
 TRAVEL (Ang.)       0.1967         Al14 -- H 19          +9.5% ( 32.1%)      1.4%
 REDUCED MASS        0.6697         C 18 -- H 20          +2.2% ( 15.3%)     38.3%
 EFFECTIVE MASS      1.3015
 FORCE CONSTANT      2.6707

 VIBRATION         53   53A           ATOM PAIR      ENERGY CONTRIBUTION    RADIAL
 FREQUENCY          2693.23         C  1 -- H 17         +92.5% ( 97.4%)    100.0%
 TRANSITION DIPOLE   1.4382         C  4 -- H 10          +3.9% ( 20.0%)     98.5%
 TRAVEL (Ang.)       0.1722         C  1 -- C  2          +0.9% (  9.6%)      1.6%
 REDUCED MASS        0.8440         C  1 -- C  4          +0.9% (  9.4%)      6.9%
 EFFECTIVE MASS      1.3651
 FORCE CONSTANT      3.6068

 VIBRATION         54   54A           ATOM PAIR      ENERGY CONTRIBUTION    RADIAL
 FREQUENCY          2715.98         C  8 -- H 13         +77.3% ( 88.9%)    100.0%
 TRANSITION DIPOLE   0.5672         C  6 -- H 12         +10.3% ( 32.5%)     99.9%
 TRAVEL (Ang.)       0.2039         C  7 -- H 11          +7.1% ( 26.9%)     99.8%
 REDUCED MASS        0.5973         C  4 -- H 10          +2.6% ( 16.2%)     99.7%
 EFFECTIVE MASS      1.3824
 FORCE CONSTANT      2.5958

 VIBRATION         55   55A           ATOM PAIR      ENERGY CONTRIBUTION    RADIAL
 FREQUENCY          2717.59         C  4 -- H 10         +75.9% ( 88.1%)    100.0%
 TRANSITION DIPOLE   1.5434         C  7 -- H 11         +11.8% ( 34.8%)     99.9%
 TRAVEL (Ang.)       0.2067         C  8 -- H 13          +8.0% ( 28.6%)     99.9%
 REDUCED MASS        0.5809         C  1 -- H 17          +2.1% ( 14.6%)     98.7%
 EFFECTIVE MASS      1.3771
 FORCE CONSTANT      2.5275

 VIBRATION         56   56A           ATOM PAIR      ENERGY CONTRIBUTION    RADIAL
 FREQUENCY          2731.06         C  6 -- H 12         +48.9% ( 70.6%)    100.0%
 TRANSITION DIPOLE   1.8396         C  7 -- H 11         +43.6% ( 66.7%)    100.0%
 TRAVEL (Ang.)       0.2428         C  4 -- H 10          +4.3% ( 21.0%)     99.9%
 REDUCED MASS        0.4188         C  8 -- H 13          +0.9% (  9.8%)     94.0%
 EFFECTIVE MASS      1.3727
 FORCE CONSTANT      1.8404

 VIBRATION         57   57A           ATOM PAIR      ENERGY CONTRIBUTION    RADIAL
 FREQUENCY          2741.78         C  6 -- H 12         +38.6% ( 62.6%)    100.0%
 TRANSITION DIPOLE   1.0672         C  7 -- H 11         +35.3% ( 59.9%)    100.0%
 TRAVEL (Ang.)       0.2908         C  4 -- H 10         +11.0% ( 33.4%)    100.0%
 REDUCED MASS        0.2908         C  8 -- H 13         +10.9% ( 33.2%)    100.0%
 EFFECTIVE MASS      1.4503
 FORCE CONSTANT      1.2882

           FORCE CONSTANT IN INTERNAL COORDINATES (Millidynes/A)

    ATOM   CHEMICAL  BOND LENGTH      BOND ANGLE     TWIST ANGLE
   NUMBER   SYMBOL  FORCE CONSTANT  FORCE CONSTANT  FORCE CONSTANT

      1       C        0.000000        0.000000        0.000000
      2       C        1.171232        0.000000        0.000000
      3       C       18.114194       18.765606        0.000000
      4       C       10.337724        6.128856       42.059803
      5       O       17.066491        0.910352        0.401349
      6       C       10.974830       47.803192        3.574102
      7       C       10.803999       15.699901        1.848846
      8       C       10.661451       15.683989        1.989502
      9       O        9.500473       10.638953        5.351764
     10       H        4.136430        1.083862        0.344411
     11       H        4.177321        1.097075        0.326811
     12       H        4.184511        1.040571        0.326073
     13       H        4.134697        1.102724        0.351501
     14      Al        5.113049        5.506762        1.072481
     15      Cl        3.561953        0.306927        0.421726
     16      Cl        3.530084        0.252210        0.504475
     17       H        4.065483        0.618960        0.995078
     18       C        6.908870        3.546645        2.780585
     19       H        3.321898        0.919316        0.789505
     20       H        3.144619        0.762134        0.823385
     21       H        3.690722        0.903191        0.545787

 **********************
 *                    *
 * JOB ENDED NORMALLY *
 *                    *
 **********************



 TOTAL JOB TIME:            10.98 SECONDS

 == MOPAC DONE ==
