 *******************************************************************************
 ** Cite this program as: MOPAC2016, Version: 22.066W, James J. P. Stewart,   **
 **                           web-site: HTTP://OpenMOPAC.net.                 **
 *******************************************************************************
 **                                                                           **
 **                                MOPAC2016                                  **
 **                                                                           **
 *******************************************************************************

                              PM7 CALCULATION RESULTS

 *******************************************************************************
 *  CALCULATION DONE:                                Tue May 10 10:06:55 2022  *
 *  PM7        - The PM7 Hamiltonian to be used
 *  GEO_DAT    - DATA SET GEOMETRY IS IN FILE "B2_TS.arc"
 *
 *
 *
 *                 CHARGE ON SYSTEM = +1
 *
 *
 *
 *  EPS=8.2    - USE ANDREAS KLAMT'S COSMO IMPLICIT SOLVATION MODEL
 *  IRC=N      - INTRINSIC REACTION COORDINATE  1 DEFINED
 *  LET        - OVERRIDE SOME SAFETY CHECKS
 *  T=         - A TIME OF 172800.0 SECONDS REQUESTED
 *  DUMP=N     - RESTART FILE WRITTEN EVERY 7200.0 SECONDS REQUESTED
 *  CYCLES=    - DO A MAXIMUM OF 10000 STEPS
 *  LARGE      - EXPANDED OUTPUT TO BE PRINTED
 *******************************************************************************
PM7 CHARGE=1 EPS=8.2 IRC=1 LARGE=100 LET CYCLES=10000 GEO_DAT="B2_TS.arc"
 ortho (in 1,1,2,2-tetrachloroethane (TeCA)) (irc)

   ATOM   CHEMICAL          X               Y               Z
  NUMBER   SYMBOL      (ANGSTROMS)     (ANGSTROMS)     (ANGSTROMS)
 
     1       C          0.00000000      0.00000000      0.00000000   
     2       C          2.09044236  *   0.00000000      0.00000000   
     3       C         -0.17337325  *   1.40681009  *   0.00000000   
     4       C         -0.45003820  *  -0.69346386  *  -1.16002425  *
     5       O          2.34266601  *  -0.44184077  *  -1.02780670  *
     6       C         -0.69448105  *   2.11635580  *  -1.09540998  *
     7       C         -0.95369612  *  -0.01068449  *  -2.24117671  *
     8       C         -1.08445585  *   1.39700607  *  -2.20787661  *
     9       O          0.25588772  *   2.07182323  *   1.04332622  *
    10       H         -0.38483473  *  -1.78760184  *  -1.16840970  *
    11       H         -1.27678055  *  -0.54927359  *  -3.13611350  *
    12       H         -0.78797280  *   3.20319946  *  -1.04688231  *
    13       H         -1.50562158  *   1.91538231  *  -3.07990132  *
    14      Al          1.50067143  *   2.46447976  *   2.19436370  *
    15      Cl          1.41129848  *   1.93370842  *   4.15034368  *
    16      Cl          2.77928871  *   3.96649890  *   1.68939954  *
    17       H          0.01587757  *  -0.56250155  *   0.94449490  *
    18       C          2.52709729  *   0.51873677  *   1.27726258  *
    19       H          1.77773070  *   0.37645281  *   2.15334223  *
    20       H          3.06487512  *   1.55185265  *   1.15636631  *
    21       H          3.40893700  *  -0.12463564  *   1.64745654  *
 


          CARTESIAN COORDINATES 

    NO.       ATOM           X           Y           Z

     1         C          0.0000      0.0000      0.0000
     2         C          2.0904      0.0000      0.0000
     3         C         -0.1734      1.4068      0.0000
     4         C         -0.4500     -0.6935     -1.1600
     5         O          2.3427     -0.4418     -1.0278
     6         C         -0.6945      2.1164     -1.0954
     7         C         -0.9537     -0.0107     -2.2412
     8         C         -1.0845      1.3970     -2.2079
     9         O          0.2559      2.0718      1.0433
    10         H         -0.3848     -1.7876     -1.1684
    11         H         -1.2768     -0.5493     -3.1361
    12         H         -0.7880      3.2032     -1.0469
    13         H         -1.5056      1.9154     -3.0799
    14        Al          1.5007      2.4645      2.1944
    15        Cl          1.4113      1.9337      4.1503
    16        Cl          2.7793      3.9665      1.6894
    17         H          0.0159     -0.5625      0.9445
    18         C          2.5271      0.5187      1.2773
    19         H          1.7777      0.3765      2.1533
    20         H          3.0649      1.5519      1.1564
    21         H          3.4089     -0.1246      1.6475

 General Reference for PM7:
 "Optimization of Parameters for Semiempirical Methods VI: More Modifications to the 
 NDDO Approximations and Re-optimization of Parameters", J. J. P. Stewart, J. Mol. Mod., 1:32, 19 (2013)
 https://link.springer.com/article/10.1007/s00894-012-1667-x

           Empirical Formula: C8 H8 O2 Al Cl2  =    21 atoms



      MOLECULAR POINT GROUP   :   C1  


      RHF CALCULATION, NO. OF DOUBLY OCCUPIED LEVELS = 34



 ALL CONVERGERS ARE NOW FORCED ON
 SHIFT=10, PULAY ON, CAMP-KING ON
 AND ITERATION COUNTER RESET




          HEAT OF FORMATION =     -55.385665 KCALS/MOLE


          GRADIENT NORM =   1.77088


          TIME FOR SCF CALCULATION =    2.24

          TIME FOR DERIVATIVES     =    0.04

          MOLECULAR WEIGHT =  234.04


          ESTIMATED TIME TO COMPLETE CALCULATION =      286.95 SECONDS

    FOR POINT-GROUP C1   THERE ARE   1 UNIQUE SYMMETRY FUNCTIONS.

 STEP:   1 TIME =     0.09 SECS, INTEGRAL =      0.09 TIME LEFT: 172797.63
 STEP:   2 TIME =     0.09 SECS, INTEGRAL =      0.18 TIME LEFT: 172797.54
 STEP:   3 TIME =     0.08 SECS, INTEGRAL =      0.26 TIME LEFT: 172797.46
 STEP:   4 TIME =     0.07 SECS, INTEGRAL =      0.33 TIME LEFT: 172797.39
 STEP:   5 TIME =     0.07 SECS, INTEGRAL =      0.40 TIME LEFT: 172797.32
 STEP:   6 TIME =     0.10 SECS, INTEGRAL =      0.50 TIME LEFT: 172797.22
 STEP:   7 TIME =     0.08 SECS, INTEGRAL =      0.59 TIME LEFT: 172797.14
 STEP:   8 TIME =     0.08 SECS, INTEGRAL =      0.66 TIME LEFT: 172797.06
 STEP:   9 TIME =     0.07 SECS, INTEGRAL =      0.73 TIME LEFT: 172796.99
 STEP:  10 TIME =     0.08 SECS, INTEGRAL =      0.81 TIME LEFT: 172796.91
 STEP:  11 TIME =     0.08 SECS, INTEGRAL =      0.89 TIME LEFT: 172796.83
 STEP:  12 TIME =     0.07 SECS, INTEGRAL =      0.96 TIME LEFT: 172796.76
 STEP:  13 TIME =     0.07 SECS, INTEGRAL =      1.03 TIME LEFT: 172796.69
 STEP:  14 TIME =     0.07 SECS, INTEGRAL =      1.11 TIME LEFT: 172796.62
 STEP:  15 TIME =     0.07 SECS, INTEGRAL =      1.18 TIME LEFT: 172796.54
 STEP:  16 TIME =     0.07 SECS, INTEGRAL =      1.25 TIME LEFT: 172796.47
 STEP:  17 TIME =     0.07 SECS, INTEGRAL =      1.32 TIME LEFT: 172796.40
 STEP:  18 TIME =     0.08 SECS, INTEGRAL =      1.40 TIME LEFT: 172796.32
 STEP:  19 TIME =     0.08 SECS, INTEGRAL =      1.48 TIME LEFT: 172796.24
 STEP:  20 TIME =     0.07 SECS, INTEGRAL =      1.55 TIME LEFT: 172796.18
 STEP:  21 TIME =     0.06 SECS, INTEGRAL =      1.61 TIME LEFT: 172796.11
 STEP:  22 TIME =     0.08 SECS, INTEGRAL =      1.69 TIME LEFT: 172796.03
 STEP:  23 TIME =     0.08 SECS, INTEGRAL =      1.77 TIME LEFT: 172795.95
 STEP:  24 TIME =     0.07 SECS, INTEGRAL =      1.84 TIME LEFT: 172795.88
 STEP:  25 TIME =     0.07 SECS, INTEGRAL =      1.92 TIME LEFT: 172795.80
 STEP:  26 TIME =     0.08 SECS, INTEGRAL =      2.00 TIME LEFT: 172795.72
 STEP:  27 TIME =     0.08 SECS, INTEGRAL =      2.08 TIME LEFT: 172795.64
 STEP:  28 TIME =     0.07 SECS, INTEGRAL =      2.14 TIME LEFT: 172795.58
 STEP:  29 TIME =     0.07 SECS, INTEGRAL =      2.22 TIME LEFT: 172795.50
 STEP:  30 TIME =     0.08 SECS, INTEGRAL =      2.30 TIME LEFT: 172795.43
 STEP:  31 TIME =     0.07 SECS, INTEGRAL =      2.37 TIME LEFT: 172795.36
 STEP:  32 TIME =     0.07 SECS, INTEGRAL =      2.44 TIME LEFT: 172795.28
 STEP:  33 TIME =     0.07 SECS, INTEGRAL =      2.51 TIME LEFT: 172795.21
 STEP:  34 TIME =     0.07 SECS, INTEGRAL =      2.58 TIME LEFT: 172795.14
 STEP:  35 TIME =     0.08 SECS, INTEGRAL =      2.66 TIME LEFT: 172795.06
 STEP:  36 TIME =     0.08 SECS, INTEGRAL =      2.74 TIME LEFT: 172794.98
 STEP:  37 TIME =     0.08 SECS, INTEGRAL =      2.82 TIME LEFT: 172794.90
 STEP:  38 TIME =     0.07 SECS, INTEGRAL =      2.90 TIME LEFT: 172794.82
 STEP:  39 TIME =     0.07 SECS, INTEGRAL =      2.97 TIME LEFT: 172794.75
 STEP:  40 TIME =     0.06 SECS, INTEGRAL =      3.03 TIME LEFT: 172794.70
 STEP:  41 TIME =     0.07 SECS, INTEGRAL =      3.10 TIME LEFT: 172794.62
 STEP:  42 TIME =     0.07 SECS, INTEGRAL =      3.16 TIME LEFT: 172794.56
 STEP:  43 TIME =     0.05 SECS, INTEGRAL =      3.22 TIME LEFT: 172794.50
 STEP:  44 TIME =     0.08 SECS, INTEGRAL =      3.30 TIME LEFT: 172794.42
 STEP:  45 TIME =     0.06 SECS, INTEGRAL =      3.36 TIME LEFT: 172794.36
 STEP:  46 TIME =     0.06 SECS, INTEGRAL =      3.42 TIME LEFT: 172794.30
 STEP:  47 TIME =     0.08 SECS, INTEGRAL =      3.50 TIME LEFT: 172794.22
 STEP:  48 TIME =     0.07 SECS, INTEGRAL =      3.57 TIME LEFT: 172794.15
 STEP:  49 TIME =     0.07 SECS, INTEGRAL =      3.65 TIME LEFT: 172794.07
 STEP:  50 TIME =     0.08 SECS, INTEGRAL =      3.73 TIME LEFT: 172794.00
 STEP:  51 TIME =     0.07 SECS, INTEGRAL =      3.79 TIME LEFT: 172793.93
 STEP:  52 TIME =     0.07 SECS, INTEGRAL =      3.86 TIME LEFT: 172793.86
 STEP:  53 TIME =     0.07 SECS, INTEGRAL =      3.93 TIME LEFT: 172793.79
 STEP:  54 TIME =     0.08 SECS, INTEGRAL =      4.01 TIME LEFT: 172793.71
 STEP:  55 TIME =     0.08 SECS, INTEGRAL =      4.09 TIME LEFT: 172793.63
 STEP:  56 TIME =     0.06 SECS, INTEGRAL =      4.15 TIME LEFT: 172793.57
 STEP:  57 TIME =     0.08 SECS, INTEGRAL =      4.23 TIME LEFT: 172793.49
 STEP:  58 TIME =     0.08 SECS, INTEGRAL =      4.31 TIME LEFT: 172793.41
 STEP:  59 TIME =     0.07 SECS, INTEGRAL =      4.38 TIME LEFT: 172793.34
 STEP:  60 TIME =     0.07 SECS, INTEGRAL =      4.45 TIME LEFT: 172793.27
 STEP:  61 TIME =     0.07 SECS, INTEGRAL =      4.52 TIME LEFT: 172793.20
 STEP:  62 TIME =     0.07 SECS, INTEGRAL =      4.59 TIME LEFT: 172793.13
 STEP:  63 TIME =     0.06 SECS, INTEGRAL =      4.65 TIME LEFT: 172793.07
           INITIAL VELOCITY IN DRC (Angstroms/Femtosecond)
        -0.10261         0.00150         0.00427
         0.18444         0.00701         0.00067
        -0.02163        -0.01645        -0.00422
        -0.03751         0.00281         0.01147
        -0.02900        -0.01111        -0.01894
         0.00110        -0.00193        -0.00326
        -0.00655         0.00990        -0.01266
         0.00105         0.00005        -0.00889
         0.00779        -0.00962        -0.00012
        -0.05303         0.00383         0.00619
         0.01753         0.00732        -0.01649
         0.01776        -0.00351        -0.00398
         0.01107         0.00851        -0.00565
        -0.02114         0.01249        -0.00118
         0.00156        -0.00057         0.00130
         0.00401        -0.00198         0.00201
         0.09347        -0.00449        -0.01905
         0.03321         0.00186         0.02181
        -0.04876        -0.03233        -0.05025
         0.02782         0.01683         0.08881
         0.02715         0.03161         0.10831


     POINT   POTENTIAL  +  ENERGY LOST   =   TOTAL      ERROR    REF%   MOVEMENT
       1     -55.38619      0.00000        -55.38619   0.00000     1   %  0.0000
       2     -55.68821      0.00000        -55.68821  -0.30203     2   %  0.2939
       3     -55.93853      0.00000        -55.93853  -0.25031     3   %  0.3785
       4     -56.01056      0.06887        -55.94168  -0.25347     4   %  0.3875
       5     -56.01289      0.12056        -55.89232  -0.20411     5   %  0.3975
       6     -56.02728      0.13268        -55.89460  -0.20639     6   %  0.3998
       7     -56.03656      0.14186        -55.89469  -0.20648     7   %  0.4022
       8     -56.04392      0.15411        -55.88981  -0.20160     8   %  0.4055
       9     -56.05442      0.16177        -55.89264  -0.20443     9   %  0.4077
      10     -56.06122      0.16826        -55.89296  -0.20475    10   %  0.4096
      11     -56.07089      0.17748        -55.89342  -0.20520    11   %  0.4123
      12     -56.08458      0.19056        -55.89402  -0.20581    12   %  0.4162
      13     -56.05049      0.20919        -55.84130  -0.15309    13   %  0.4218
      14     -56.05437      0.21283        -55.84154  -0.15333    14   %  0.4229
      15     -56.05986      0.21801        -55.84185  -0.15364    15   %  0.4245
      16     -56.06763      0.22535        -55.84228  -0.15407    16   %  0.4268
      17     -56.07867      0.23579        -55.84288  -0.15467    17   %  0.4300
      18     -56.09765      0.25064        -55.84701  -0.15880    18   %  0.4347
      19     -56.11009      0.26109        -55.84900  -0.16079    19   %  0.4380
      20     -56.12120      0.27161        -55.84959  -0.16138    20   %  0.4413
      21     -56.18177      0.28658        -55.89519  -0.20698    21   %  0.4460
      22     -56.18518      0.28976        -55.89542  -0.20721    22   %  0.4470
      23     -56.19496      0.29426        -55.90071  -0.21249    23   %  0.4484
      24     -56.19793      0.29703        -55.90090  -0.21269    24   %  0.4493
      25     -56.20213      0.30096        -55.90117  -0.21296    25   %  0.4505
      26     -56.20788      0.30653        -55.90135  -0.21313    26   %  0.4523
      27     -56.21631      0.31444        -55.90187  -0.21366    27   %  0.4547
      28     -56.22819      0.32567        -55.90252  -0.21431    28   %  0.4583
      29     -56.24991      0.34166        -55.90825  -0.22004    29   %  0.4633
      30     -56.25810      0.35119        -55.90691  -0.21870    30   %  0.4663
      31     -56.27017      0.36284        -55.90733  -0.21912    31   %  0.4700
      32     -56.30530      0.37942        -55.92588  -0.23767    32   %  0.4752
      33     -56.31121      0.38491        -55.92629  -0.23808    33   %  0.4769
      34     -56.32110      0.39271        -55.92839  -0.24018    34   %  0.4793
      35     -56.32932      0.40034        -55.92897  -0.24076    35   %  0.4817
      36     -56.32376      0.41119        -55.91257  -0.22436    36   %  0.4851
      37     -56.32785      0.41499        -55.91286  -0.22465    37   %  0.4863
      38     -56.35359      0.42038        -55.93321  -0.24500    38   %  0.4880
      39     -56.34714      0.42207        -55.92506  -0.23685    39   %  0.4886
      40     -56.34804      0.42292        -55.92513  -0.23692    40   %  0.4888
      41     -56.34933      0.42411        -55.92522  -0.23701    41   %  0.4892
      42     -56.35114      0.42579        -55.92535  -0.23714    42   %  0.4897
      43     -56.35391      0.42818        -55.92574  -0.23752    43   %  0.4905
      44     -56.35570      0.43156        -55.92414  -0.23593    44   %  0.4915
      45     -56.36353      0.43535        -55.92819  -0.23997    45   %  0.4927
      46     -56.36641      0.43802        -55.92839  -0.24018    46   %  0.4936
      47     -56.37055      0.44180        -55.92876  -0.24054    47   %  0.4948
      48     -56.37673      0.44715        -55.92958  -0.24136    48   %  0.4964
      49     -56.38434      0.45474        -55.92960  -0.24139    49   %  0.4988
      50     -56.39531      0.46550        -55.92981  -0.24159    50   %  0.5022
      51     -56.41180      0.48080        -55.93100  -0.24279    51   %  0.5069
      52     -56.43246      0.50073        -55.93173  -0.24351    52   %  0.5132
      53     -56.46309      0.52913        -55.93396  -0.24575    53   %  0.5220
      54     -56.49466      0.55632        -55.93834  -0.25012    54   %  0.5305
      55     -56.51319      0.57477        -55.93843  -0.25022    55   %  0.5363
      56     -56.54149      0.60092        -55.94057  -0.25236    56   %  0.5445
      57     -56.58024      0.62643        -55.95381  -0.26559    57   %  0.5524
      58     -56.59070      0.63645        -55.95426  -0.26604    58   %  0.5556
      59     -56.60604      0.65065        -55.95539  -0.26717    59   %  0.5600
      60     -56.61787      0.66962        -55.94825  -0.26004    60   %  0.5659
      61     -56.62886      0.67972        -55.94914  -0.26093    61   %  0.5691
      62     -56.64442      0.69402        -55.95040  -0.26219    62   %  0.5735
      63     -56.66404      0.71211        -55.95193  -0.26372    63   %  0.5791
      64     -56.67598      0.73291        -55.94308  -0.25486    64   %  0.5856
      65     -56.68670      0.74285        -55.94385  -0.25563    65   %  0.5887
      66     -56.70185      0.75692        -55.94494  -0.25673    66   %  0.5930
      67     -56.72358      0.77602        -55.94756  -0.25934    67   %  0.5990
      68     -56.74168      0.79279        -55.94888  -0.26067    68   %  0.6042
      69     -56.76469      0.81343        -55.95126  -0.26305    69   %  0.6106
      70     -56.78565      0.83244        -55.95321  -0.26499    70   %  0.6164
      71     -56.81087      0.85175        -55.95912  -0.27091    71   %  0.6224
      72     -56.82458      0.86301        -55.96157  -0.27336    72   %  0.6259
      73     -56.83486      0.87321        -55.96165  -0.27344    73   %  0.6290
      74     -56.85107      0.88766        -55.96341  -0.27520    74   %  0.6335
      75     -56.86762      0.90310        -55.96452  -0.27631    75   %  0.6383
      76     -56.88977      0.92389        -55.96588  -0.27767    76   %  0.6447
      77     -56.91632      0.94920        -55.96712  -0.27890    77   %  0.6525
      78     -57.01574      0.98157        -56.03417  -0.34596    78   %  0.6624
      79     -57.02176      0.98719        -56.03458  -0.34636    79   %  0.6641
      80     -57.03025      0.99511        -56.03514  -0.34693    80   %  0.6666
      81     -57.04232      1.00632        -56.03600  -0.34779    81   %  0.6700
      82     -57.09085      1.02218        -56.06867  -0.38046    82   %  0.6748
      83     -57.09508      1.02611        -56.06897  -0.38076    83   %  0.6761
      84     -57.10111      1.03167        -56.06944  -0.38123    84   %  0.6778
      85     -57.10953      1.03953        -56.07000  -0.38179    85   %  0.6802
      86     -57.12148      1.05065        -56.07083  -0.38262    86   %  0.6836
      87     -57.14543      1.06641        -56.07902  -0.39081    87   %  0.6884
      88     -57.15380      1.07419        -56.07961  -0.39139    88   %  0.6908
      89     -57.16567      1.08517        -56.08050  -0.39229    89   %  0.6941
      90     -57.18424      1.10070        -56.08355  -0.39533    90   %  0.6989
      91     -57.19981      1.11331        -56.08650  -0.39829    91   %  0.7027
      92     -57.21104      1.12368        -56.08735  -0.39914    92   %  0.7059
      93     -57.21445      1.13832        -56.07613  -0.38792    93   %  0.7104
      94     -57.22101      1.14450        -56.07651  -0.38829    94   %  0.7122
      95     -57.23026      1.15322        -56.07704  -0.38883    95   %  0.7149
      96     -57.24334      1.16555        -56.07779  -0.38958    96   %  0.7187
      97     -57.25604      1.18301        -56.07303  -0.38482    97   %  0.7240
      98     -57.26816      1.19434        -56.07382  -0.38561    98   %  0.7275
      99     -57.28526      1.21029        -56.07497  -0.38676    99   %  0.7324
     100     -57.30511      1.23135        -56.07376  -0.38555   100   %  0.7389


          FINAL GEOMETRY OBTAINED                                 CHARGE
 PM7 CHARGE=1 EPS=8.2 IRC=1 LARGE=100 LET CYCLES=10000
 ortho (in 1,1,2,2-tetrachloroethane (TeCA)) (irc)

   C    0.000000  0    0.000000  0    0.000000  0   0  0  0   -0.4627     100AA*
   C    2.316949  1    0.000000  0    0.000000  0   1  0  0    0.6279     100AB*
   C    1.403700  1   94.337353  1    0.000000  0   1  2  0    0.4421     100AC*
   C    1.405079  1  106.514223  1  120.362461  1   1  2  3   -0.0431     100AD*
   O    1.135102  1   94.485864  1  247.168006  1   2  1  3    0.0559     100AE*
   C    1.400805  1  122.975195  1  112.079166  1   3  1  2   -0.2977     100AF*
   C    1.383980  1  120.515950  1  256.059317  1   4  1  2   -0.2401     100AG*
   C    1.385937  1  117.733963  1  359.524525  1   6  3  1   -0.0190     100AH*
   O    1.322933  1  117.908137  1  295.649732  1   3  1  2   -0.5649     100AI*
   H    1.094689  1  119.114089  1   76.742494  1   4  1  2    0.1739     100AJ*
   H    1.091914  1  120.159848  1  179.517460  1   7  4  1    0.1836     100AK*
   H    1.090370  1  120.302954  1  179.210261  1   6  3  1    0.2005     100AL*
   H    1.096249  1  119.852841  1  179.091083  1   8  6  3    0.1818     100AM*
  Al    1.724591  1  153.035525  1   53.381973  1   9  3  1    0.4719     100AN*
  Cl    2.032310  1  123.500075  1  250.481011  1  14  9  3   -0.1936     100AO*
  Cl    2.038355  1  117.498729  1   87.298269  1  14  9  3   -0.2092     100AP*
   H    1.091640  1   82.557828  1  238.450366  1   1  2  3    0.2025     100AQ*
   C    1.427749  1  103.264357  1   68.531857  1   2  1  3   -0.4240     100AR*
   H    1.163010  1  115.731438  1   25.412262  1  18  2  1    0.2935     100AS*
   H    1.174546  1  111.312035  1  245.570696  1  18  2  1    0.2936     100AT*
   H    1.158956  1  108.221133  1  136.892439  1  18  2  1    0.3269     100AU*


     POINT   POTENTIAL  +  ENERGY LOST   =   TOTAL      ERROR    REF%   MOVEMENT
     101     -57.33446      1.25844        -56.07602  -0.38781   101   %  0.7473
     102     -57.36175      1.28396        -56.07780  -0.38959   102   %  0.7551
     103     -57.39060      1.31087        -56.07973  -0.39152   103   %  0.7635
     104     -57.42436      1.33820        -56.08616  -0.39795   104   %  0.7719
     105     -57.43661      1.35338        -56.08323  -0.39502   105   %  0.7767
     106     -57.45491      1.36608        -56.08883  -0.40061   106   %  0.7805
     107     -57.45922      1.37354        -56.08568  -0.39747   107   %  0.7829
     108     -57.46545      1.37958        -56.08588  -0.39766   108   %  0.7847
     109     -57.52241      1.38810        -56.13430  -0.44609   109   %  0.7873
     110     -57.52424      1.38984        -56.13440  -0.44619   110   %  0.7879
     111     -57.52683      1.39229        -56.13454  -0.44632   111   %  0.7886
     112     -57.53063      1.39576        -56.13487  -0.44666   112   %  0.7897
     113     -57.53582      1.40066        -56.13516  -0.44695   113   %  0.7912
     114     -57.54309      1.40760        -56.13549  -0.44728   114   %  0.7933
     115     -57.55339      1.41740        -56.13599  -0.44778   115   %  0.7964
     116     -57.56665      1.43126        -56.13538  -0.44717   116   %  0.8007
     117     -57.58746      1.45085        -56.13661  -0.44840   117   %  0.8068
     118     -57.61403      1.47584        -56.13819  -0.44998   118   %  0.8145
     119     -57.64385      1.50387        -56.13998  -0.45177   119   %  0.8233
     120     -57.67684      1.53335        -56.14349  -0.45528   120   %  0.8325
     121     -57.70044      1.55544        -56.14500  -0.45679   121   %  0.8394
     122     -57.72601      1.58070        -56.14531  -0.45710   122   %  0.8474
     123     -57.74062      1.61630        -56.12432  -0.43610   123   %  0.8586
     124     -57.75291      1.62722        -56.12569  -0.43748   124   %  0.8621
     125     -57.76747      1.64033        -56.12714  -0.43893   125   %  0.8663
     126     -57.78405      1.65570        -56.12835  -0.44013   126   %  0.8712
     127     -57.80673      1.67545        -56.13127  -0.44306   127   %  0.8775
     128     -57.82414      1.69177        -56.13237  -0.44416   128   %  0.8827
     129     -57.89152      1.71366        -56.17786  -0.48965   129   %  0.8897
     130     -57.89648      1.71825        -56.17823  -0.49002   130   %  0.8912
     131     -57.90348      1.72473        -56.17875  -0.49054   131   %  0.8934
     132     -57.91695      1.73387        -56.18307  -0.49486   132   %  0.8963
     133     -57.92369      1.74011        -56.18357  -0.49536   133   %  0.8984
     134     -57.93229      1.74892        -56.18337  -0.49516   134   %  0.9012
     135     -57.95657      1.76136        -56.19521  -0.50700   135   %  0.9053
     136     -57.96214      1.76645        -56.19569  -0.50748   136   %  0.9069
     137     -57.97057      1.77364        -56.19693  -0.50872   137   %  0.9093
     138     -57.98055      1.78275        -56.19780  -0.50959   138   %  0.9122
     139     -57.99268      1.79562        -56.19706  -0.50885   139   %  0.9164
     140     -58.01294      1.81379        -56.19914  -0.51093   140   %  0.9223
     141     -58.03254      1.83158        -56.20096  -0.51275   141   %  0.9281
     142     -58.05299      1.85009        -56.20290  -0.51468   142   %  0.9341
     143     -58.00963      1.86881        -56.14082  -0.45261   143   %  0.9402
     144     -58.01327      1.87212        -56.14116  -0.45294   144   %  0.9413
     145     -58.01841      1.87678        -56.14163  -0.45342   145   %  0.9429
     146     -58.02610      1.88336        -56.14274  -0.45453   146   %  0.9451
     147     -58.03726      1.89216        -56.14509  -0.45688   147   %  0.9480
     148     -58.04614      1.90028        -56.14587  -0.45765   148   %  0.9507
     149     -58.01433      1.91172        -56.10261  -0.41440   149   %  0.9545
     150     -58.01701      1.91417        -56.10284  -0.41463   150   %  0.9553
     151     -58.01697      1.91763        -56.09934  -0.41112   151   %  0.9564
     152     -58.01983      1.92025        -56.09958  -0.41137   152   %  0.9573
     153     -58.02387      1.92394        -56.09993  -0.41172   153   %  0.9585
     154     -58.02958      1.92916        -56.10043  -0.41221   154   %  0.9602
     155     -58.03765      1.93653        -56.10112  -0.41291   155   %  0.9626
     156     -58.04905      1.94696        -56.10210  -0.41388   156   %  0.9660
     157     -58.06532      1.96168        -56.10364  -0.41542   157   %  0.9709
     158     -58.08372      1.97845        -56.10526  -0.41705   158   %  0.9764
     159     -58.05761      1.99695        -56.06066  -0.37244   159   %  0.9825
     160     -58.06183      2.00083        -56.06100  -0.37279   160   %  0.9838
     161     -58.06780      2.00630        -56.06150  -0.37329   161   %  0.9856
     162     -58.07621      2.01403        -56.06219  -0.37397   162   %  0.9882
     163     -58.09365      2.02494        -56.06872  -0.38051   163   %  0.9919
     164     -58.10018      2.03095        -56.06924  -0.38102   164   %  0.9939
     165     -58.10939      2.03943        -56.06996  -0.38175   165   %  0.9968
     166     -58.12094      2.05140        -56.06954  -0.38133   166   %  1.0008
     167     -58.13923      2.06831        -56.07092  -0.38271   167   %  1.0065
     168     -58.16682      2.08863        -56.07819  -0.38998   168   %  1.0134
     169     -58.17830      2.09923        -56.07907  -0.39086   169   %  1.0170
     170     -58.19723      2.11404        -56.08319  -0.39498   170   %  1.0220
     171     -58.20838      2.12433        -56.08405  -0.39584   171   %  1.0255
     172     -58.22473      2.13880        -56.08593  -0.39772   172   %  1.0304
     173     -58.24939      2.15371        -56.09568  -0.40747   173   %  1.0355
     174     -58.25366      2.16042        -56.09324  -0.40502   174   %  1.0378
     175     -58.26023      2.16645        -56.09378  -0.40556   175   %  1.0399
     176     -58.27749      2.17497        -56.10251  -0.41430   176   %  1.0428
     177     -58.28193      2.17904        -56.10288  -0.41467   177   %  1.0442
     178     -58.28819      2.18479        -56.10340  -0.41519   178   %  1.0462
     179     -58.29704      2.19290        -56.10413  -0.41592   179   %  1.0490
     180     -58.30952      2.20437        -56.10515  -0.41694   180   %  1.0529
     181     -58.31904      2.22043        -56.09861  -0.41040   181   %  1.0584
     182     -58.32344      2.22930        -56.09414  -0.40593   182   %  1.0615
     183     -58.33071      2.23517        -56.09554  -0.40733   183   %  1.0635
     184     -58.33793      2.24219        -56.09574  -0.40753   184   %  1.0660
     185     -58.34851      2.25210        -56.09641  -0.40820   185   %  1.0694
     186     -58.36222      2.26609        -56.09613  -0.40792   186   %  1.0743
     187     -58.37651      2.28584        -56.09066  -0.40245   187   %  1.0811
     188     -58.38962      2.29778        -56.09184  -0.40363   188   %  1.0853
     189     -58.40627      2.31321        -56.09305  -0.40484   189   %  1.0907
     190     -58.42734      2.33283        -56.09450  -0.40629   190   %  1.0976
     191     -58.44595      2.35567        -56.09028  -0.40206   191   %  1.1057
     192     -58.46288      2.37123        -56.09165  -0.40344   192   %  1.1113
     193     -58.50522      2.38982        -56.11540  -0.42719   193   %  1.1179
     194     -58.51115      2.39518        -56.11597  -0.42776   194   %  1.1198
     195     -58.51951      2.40275        -56.11675  -0.42854   195   %  1.1225
     196     -58.53095      2.41343        -56.11752  -0.42931   196   %  1.1263
     197     -58.54747      2.42846        -56.11901  -0.43079   197   %  1.1317
     198     -58.56672      2.44579        -56.12092  -0.43271   198   %  1.1380
     199     -58.58599      2.46338        -56.12261  -0.43440   199   %  1.1443
     200     -58.60681      2.48238        -56.12443  -0.43622   200   %  1.1512


          FINAL GEOMETRY OBTAINED                                 CHARGE
 PM7 CHARGE=1 EPS=8.2 IRC=1 LARGE=100 LET CYCLES=10000
 ortho (in 1,1,2,2-tetrachloroethane (TeCA)) (irc)

   C    0.000000  0    0.000000  0    0.000000  0   0  0  0   -0.4399     200AA*
   C    2.429264  1    0.000000  0    0.000000  0   1  0  0    0.6241     200AB*
   C    1.401387  1   93.133688  1    0.000000  0   1  2  0    0.4204     200AC*
   C    1.400055  1  106.043387  1  120.023510  1   1  2  3   -0.0557     200AD*
   O    1.132628  1   90.443790  1  247.496202  1   2  1  3    0.0849     200AE*
   C    1.398870  1  122.961632  1  112.198488  1   3  1  2   -0.2884     200AF*
   C    1.387084  1  120.404808  1  256.804836  1   4  1  2   -0.2345     200AG*
   C    1.387920  1  117.659094  1  358.732038  1   6  3  1   -0.0353     200AH*
   O    1.326519  1  117.837082  1  296.003479  1   3  1  2   -0.5621     200AI*
   H    1.094250  1  119.327538  1   77.507212  1   4  1  2    0.1727     200AJ*
   H    1.091603  1  120.039460  1  179.502212  1   7  4  1    0.1818     200AK*
   H    1.089985  1  120.435307  1  178.724176  1   6  3  1    0.1984     200AL*
   H    1.095642  1  119.757927  1  179.166396  1   8  6  3    0.1805     200AM*
  Al    1.718296  1  154.334681  1   54.404685  1   9  3  1    0.4699     200AN*
  Cl    2.033667  1  123.657547  1  250.972138  1  14  9  3   -0.1958     200AO*
  Cl    2.039531  1  117.904912  1   86.743710  1  14  9  3   -0.2105     200AP*
   H    1.089624  1   80.608270  1  238.218787  1   1  2  3    0.1958     200AQ*
   C    1.423627  1  101.728371  1   68.742764  1   2  1  3   -0.4248     200AR*
   H    1.163506  1  115.245085  1   24.903331  1  18  2  1    0.2958     200AS*
   H    1.173891  1  111.594471  1  245.375664  1  18  2  1    0.2947     200AT*
   H    1.158915  1  108.643701  1  136.429192  1  18  2  1    0.3279     200AU*


     POINT   POTENTIAL  +  ENERGY LOST   =   TOTAL      ERROR    REF%   MOVEMENT
     201     -58.61821      2.50212        -56.11609  -0.42788   201   %  1.1584
     202     -58.63909      2.51167        -56.12741  -0.43920   202   %  1.1619
     203     -58.64347      2.51569        -56.12778  -0.43956   203   %  1.1634
     204     -58.64969      2.52136        -56.12832  -0.44011   204   %  1.1654
     205     -58.66436      2.52937        -56.13500  -0.44679   205   %  1.1684
     206     -58.66916      2.53373        -56.13543  -0.44722   206   %  1.1700
     207     -58.67592      2.53989        -56.13603  -0.44782   207   %  1.1722
     208     -58.68347      2.54858        -56.13488  -0.44667   208   %  1.1754
     209     -58.69602      2.56001        -56.13601  -0.44780   209   %  1.1797
     210     -58.71246      2.57519        -56.13727  -0.44906   210   %  1.1853
     211     -58.72763      2.59417        -56.13346  -0.44525   211   %  1.1923
     212     -58.74377      2.60792        -56.13585  -0.44763   212   %  1.1974
     213     -58.75730      2.62039        -56.13690  -0.44869   213   %  1.2021
     214     -58.77142      2.63745        -56.13397  -0.44576   214   %  1.2086
     215     -58.79225      2.65142        -56.14083  -0.45262   215   %  1.2139
     216     -58.80048      2.65892        -56.14156  -0.45335   216   %  1.2167
     217     -58.81208      2.66948        -56.14260  -0.45439   217   %  1.2207
     218     -58.82805      2.68410        -56.14396  -0.45574   218   %  1.2263
     219     -58.85224      2.70173        -56.15051  -0.46229   219   %  1.2330
     220     -58.86270      2.71140        -56.15130  -0.46309   220   %  1.2367
     221     -58.87809      2.72497        -56.15312  -0.46491   221   %  1.2419
     222     -58.89510      2.73913        -56.15597  -0.46776   222   %  1.2474
     223     -58.90821      2.75091        -56.15730  -0.46909   223   %  1.2519
     224     -58.92240      2.76526        -56.15714  -0.46893   224   %  1.2574
     225     -58.94723      2.78542        -56.16182  -0.47360   225   %  1.2653
     226     -58.95861      2.79847        -56.16014  -0.47193   226   %  1.2703
     227     -58.97560      2.81264        -56.16296  -0.47475   227   %  1.2758
     228     -58.98887      2.82451        -56.16436  -0.47615   228   %  1.2804
     229     -59.00462      2.83859        -56.16603  -0.47782   229   %  1.2859
     230     -59.01243      2.85389        -56.15855  -0.47033   230   %  1.2919
     231     -59.02219      2.86174        -56.16045  -0.47223   231   %  1.2950
     232     -59.03116      2.86976        -56.16140  -0.47319   232   %  1.2982
     233     -59.05267      2.88106        -56.17161  -0.48339   233   %  1.3027
     234     -59.05824      2.88605        -56.17219  -0.48398   234   %  1.3046
     235     -59.06610      2.89308        -56.17301  -0.48480   235   %  1.3074
     236     -59.08097      2.90299        -56.17798  -0.48977   236   %  1.3114
     237     -59.08798      2.90925        -56.17873  -0.49052   237   %  1.3139
     238     -59.09786      2.91807        -56.17979  -0.49158   238   %  1.3174
     239     -59.11156      2.93015        -56.18141  -0.49319   239   %  1.3222
     240     -59.12642      2.94351        -56.18290  -0.49469   240   %  1.3276
     241     -59.14049      2.95885        -56.18164  -0.49343   241   %  1.3338
     242     -59.15838      2.97802        -56.18036  -0.49215   242   %  1.3415
     243     -59.17759      3.00167        -56.17592  -0.48771   243   %  1.3512
     244     -59.19020      3.01734        -56.17285  -0.48464   244   %  1.3576
     245     -59.20390      3.02987        -56.17403  -0.48582   245   %  1.3628
     246     -59.22142      3.04610        -56.17532  -0.48711   246   %  1.3695
     247     -59.24384      3.06611        -56.17773  -0.48952   247   %  1.3778
     248     -59.26408      3.08414        -56.17993  -0.49172   248   %  1.3853
     249     -59.28311      3.10118        -56.18193  -0.49372   249   %  1.3924
     250     -59.30210      3.11808        -56.18402  -0.49581   250   %  1.3995
     251     -59.31845      3.13445        -56.18401  -0.49579   251   %  1.4065
     252     -59.33731      3.15739        -56.17992  -0.49171   252   %  1.4162
     253     -59.35120      3.17325        -56.17795  -0.48974   253   %  1.4230
     254     -59.37481      3.18909        -56.18572  -0.49751   254   %  1.4298
     255     -59.38184      3.19704        -56.18480  -0.49659   255   %  1.4332
     256     -59.39414      3.20825        -56.18589  -0.49768   256   %  1.4381
     257     -59.41104      3.22333        -56.18771  -0.49950   257   %  1.4446
     258     -59.42910      3.23904        -56.19006  -0.50184   258   %  1.4515
     259     -59.45208      3.25340        -56.19868  -0.51046   259   %  1.4578
     260     -59.46204      3.26029        -56.20175  -0.51354   260   %  1.4608
     261     -59.46838      3.26581        -56.20257  -0.51436   261   %  1.4633
     262     -59.47734      3.27360        -56.20374  -0.51553   262   %  1.4667
     263     -59.48902      3.28375        -56.20527  -0.51705   263   %  1.4712
     264     -59.50195      3.29531        -56.20664  -0.51843   264   %  1.4763
     265     -59.51792      3.30918        -56.20874  -0.52053   265   %  1.4825
     266     -59.53850      3.32261        -56.21589  -0.52768   266   %  1.4885
     267     -59.54663      3.32966        -56.21697  -0.52876   267   %  1.4917
     268     -59.55765      3.33920        -56.21846  -0.53024   268   %  1.4960
     269     -59.57037      3.35020        -56.22017  -0.53195   269   %  1.5009
     270     -59.46674      3.36204        -56.10469  -0.41648   270   %  1.5063
     271     -59.46850      3.36361        -56.10490  -0.41668   271   %  1.5070
     272     -59.47100      3.36582        -56.10518  -0.41696   272   %  1.5080
     273     -59.48366      3.36894        -56.11472  -0.42650   273   %  1.5095
     274     -59.48527      3.37037        -56.11490  -0.42669   274   %  1.5101
     275     -59.48755      3.37239        -56.11516  -0.42695   275   %  1.5110
     276     -59.49077      3.37524        -56.11553  -0.42732   276   %  1.5124
     277     -59.49532      3.37926        -56.11606  -0.42784   277   %  1.5142
     278     -59.50173      3.38494        -56.11679  -0.42858   278   %  1.5168
     279     -59.51077      3.39294        -56.11783  -0.42962   279   %  1.5205
     280     -59.52632      3.40398        -56.12235  -0.43413   280   %  1.5256
     281     -59.53466      3.41128        -56.12338  -0.43516   281   %  1.5290
     282     -59.54411      3.42139        -56.12271  -0.43450   282   %  1.5337
     283     -59.55668      3.43561        -56.12107  -0.43286   283   %  1.5404
     284     -59.57408      3.45117        -56.12291  -0.43470   284   %  1.5477
     285     -59.58304      3.46724        -56.11580  -0.42759   285   %  1.5552
     286     -59.59502      3.47569        -56.11933  -0.43112   286   %  1.5592
     287     -59.60220      3.48200        -56.12019  -0.43198   287   %  1.5622
     288     -59.61230      3.49090        -56.12140  -0.43319   288   %  1.5664
     289     -59.62526      3.50232        -56.12294  -0.43472   289   %  1.5719
     290     -59.63994      3.51526        -56.12468  -0.43646   290   %  1.5781
     291     -59.65556      3.52903        -56.12654  -0.43832   291   %  1.5847
     292     -59.66776      3.54318        -56.12458  -0.43636   292   %  1.5915
     293     -59.68223      3.55742        -56.12481  -0.43660   293   %  1.5983
     294     -59.70680      3.57735        -56.12945  -0.44124   294   %  1.6080
     295     -59.71866      3.59026        -56.12839  -0.44018   295   %  1.6143
     296     -59.73855      3.60789        -56.13066  -0.44244   296   %  1.6230
     297     -59.75728      3.62430        -56.13298  -0.44477   297   %  1.6311
     298     -59.77423      3.63937        -56.13487  -0.44665   298   %  1.6386
     299     -59.79155      3.65475        -56.13679  -0.44858   299   %  1.6463
     300     -59.81006      3.67028        -56.13978  -0.45157   300   %  1.6541


          FINAL GEOMETRY OBTAINED                                 CHARGE
 PM7 CHARGE=1 EPS=8.2 IRC=1 LARGE=100 LET CYCLES=10000
 ortho (in 1,1,2,2-tetrachloroethane (TeCA)) (irc)

   C    0.000000  0    0.000000  0    0.000000  0   0  0  0   -0.4171     300AA*
   C    2.547459  1    0.000000  0    0.000000  0   1  0  0    0.6212     300AB*
   C    1.400188  1   91.687858  1    0.000000  0   1  2  0    0.4041     300AC*
   C    1.396807  1  106.200819  1  119.597810  1   1  2  3   -0.0640     300AD*
   O    1.131250  1   86.559244  1  247.763386  1   2  1  3    0.1012     300AE*
   C    1.397351  1  123.032037  1  112.419506  1   3  1  2   -0.2826     300AF*
   C    1.389497  1  120.351685  1  258.110760  1   4  1  2   -0.2304     300AG*
   C    1.389519  1  117.585791  1  357.916697  1   6  3  1   -0.0464     300AH*
   O    1.329117  1  117.661052  1  296.697888  1   3  1  2   -0.5583     300AI*
   H    1.093947  1  119.472336  1   78.683420  1   4  1  2    0.1720     300AJ*
   H    1.091437  1  119.931883  1  179.234853  1   7  4  1    0.1806     300AK*
   H    1.089713  1  120.558623  1  178.307626  1   6  3  1    0.1970     300AL*
   H    1.095208  1  119.700117  1  179.542581  1   8  6  3    0.1795     300AM*
  Al    1.712341  1  155.966474  1   55.816491  1   9  3  1    0.4687     300AN*
  Cl    2.034947  1  123.781524  1  251.176317  1  14  9  3   -0.1983     300AO*
  Cl    2.040115  1  118.494718  1   85.841662  1  14  9  3   -0.2110     300AP*
   H    1.088423  1   79.261417  1  237.952080  1   1  2  3    0.1912     300AQ*
   C    1.420743  1  100.956618  1   69.027883  1   2  1  3   -0.4285     300AR*
   H    1.163872  1  114.534307  1   24.418832  1  18  2  1    0.2968     300AS*
   H    1.171989  1  112.185354  1  245.346976  1  18  2  1    0.2952     300AT*
   H    1.158658  1  109.159447  1  135.931271  1  18  2  1    0.3293     300AU*


     POINT   POTENTIAL  +  ENERGY LOST   =   TOTAL      ERROR    REF%   MOVEMENT
     301     -59.82432      3.68286        -56.14146  -0.45325   301   %  1.6605
     302     -59.84010      3.69651        -56.14359  -0.45538   302   %  1.6675
     303     -59.85499      3.70963        -56.14536  -0.45715   303   %  1.6742
     304     -59.87074      3.72345        -56.14729  -0.45908   304   %  1.6813
     305     -59.89308      3.73740        -56.15568  -0.46747   305   %  1.6885
     306     -59.90075      3.74418        -56.15657  -0.46836   306   %  1.6920
     307     -59.91408      3.75371        -56.16037  -0.47216   307   %  1.6969
     308     -59.91440      3.76059        -56.15381  -0.46560   308   %  1.7005
     309     -59.91875      3.76437        -56.15437  -0.46616   309   %  1.7025
     310     -59.93166      3.76971        -56.16195  -0.47374   310   %  1.7053
     311     -59.93167      3.77245        -56.15922  -0.47101   311   %  1.7068
     312     -59.93436      3.77479        -56.15957  -0.47136   312   %  1.7080
     313     -59.93816      3.77810        -56.16007  -0.47186   313   %  1.7097
     314     -59.94331      3.78276        -56.16054  -0.47233   314   %  1.7122
     315     -59.95058      3.78934        -56.16124  -0.47303   315   %  1.7157
     316     -59.93063      3.79862        -56.13201  -0.44380   316   %  1.7206
     317     -59.93332      3.80103        -56.13230  -0.44408   317   %  1.7218
     318     -59.93713      3.80443        -56.13270  -0.44448   318   %  1.7237
     319     -59.94250      3.80924        -56.13326  -0.44505   319   %  1.7262
     320     -59.95356      3.81601        -56.13755  -0.44934   320   %  1.7299
     321     -59.95873      3.82063        -56.13810  -0.44989   321   %  1.7324
     322     -59.96601      3.82713        -56.13888  -0.45067   322   %  1.7359
     323     -59.97630      3.83629        -56.14001  -0.45179   323   %  1.7408
     324     -59.98989      3.84846        -56.14144  -0.45322   324   %  1.7474
     325     -60.00548      3.86275        -56.14273  -0.45452   325   %  1.7551
     326     -60.02514      3.88035        -56.14479  -0.45657   326   %  1.7648
     327     -60.04469      3.89756        -56.14713  -0.45892   327   %  1.7742
     328     -60.06226      3.91327        -56.14900  -0.46079   328   %  1.7830
     329     -60.08028      3.92936        -56.15092  -0.46271   329   %  1.7919
     330     -60.06890      3.94560        -56.12330  -0.43509   330   %  1.8011
     331     -60.07100      3.94993        -56.12107  -0.43286   331   %  1.8036
     332     -60.07568      3.95402        -56.12166  -0.43345   332   %  1.8059
     333     -60.08203      3.95978        -56.12224  -0.43403   333   %  1.8092
     334     -60.09097      3.96791        -56.12306  -0.43484   334   %  1.8138
     335     -60.10032      3.97936        -56.12097  -0.43275   335   %  1.8204
     336     -60.11283      3.99049        -56.12234  -0.43412   336   %  1.8268
     337     -60.12810      4.00385        -56.12426  -0.43604   337   %  1.8346
     338     -60.14332      4.01738        -56.12593  -0.43772   338   %  1.8425
     339     -60.15802      4.03203        -56.12599  -0.43777   339   %  1.8511
     340     -60.18613      4.05257        -56.13355  -0.44534   340   %  1.8632
     341     -60.19767      4.06304        -56.13462  -0.44641   341   %  1.8694
     342     -60.21332      4.07723        -56.13609  -0.44788   342   %  1.8779
     343     -60.23141      4.09364        -56.13778  -0.44957   343   %  1.8878
     344     -60.24862      4.11135        -56.13727  -0.44905   344   %  1.8986
     345     -60.27644      4.13615        -56.14029  -0.45208   345   %  1.9138
     346     -60.30093      4.15607        -56.14486  -0.45665   346   %  1.9261
     347     -60.31605      4.16906        -56.14698  -0.45877   347   %  1.9342
     348     -60.33036      4.18154        -56.14882  -0.46061   348   %  1.9420
     349     -60.34465      4.19447        -56.15018  -0.46197   349   %  1.9502
     350     -60.36535      4.21004        -56.15531  -0.46710   350   %  1.9601
     351     -60.37602      4.21967        -56.15634  -0.46813   351   %  1.9662
     352     -60.39082      4.23299        -56.15783  -0.46962   352   %  1.9748
     353     -60.40743      4.24832        -56.15911  -0.47090   353   %  1.9847
     354     -60.42843      4.26734        -56.16109  -0.47288   354   %  1.9971
     355     -60.44947      4.28629        -56.16318  -0.47496   355   %  2.0095
     356     -60.47000      4.30465        -56.16535  -0.47713   356   %  2.0217
     357     -60.65398      4.32207        -56.33191  -0.64370   357   %  2.0332
     358     -60.65623      4.32398        -56.33225  -0.64404   358   %  2.0344
     359     -60.65941      4.32666        -56.33275  -0.64453   359   %  2.0362
     360     -60.66386      4.33044        -56.33342  -0.64521   360   %  2.0386
     361     -60.67011      4.33575        -56.33436  -0.64615   361   %  2.0421
     362     -60.66911      4.34322        -56.32589  -0.63768   362   %  2.0470
     363     -60.66817      4.34683        -56.32134  -0.63313   363   %  2.0493
     364     -60.67088      4.34922        -56.32167  -0.63345   364   %  2.0509
     365     -60.67552      4.35259        -56.32294  -0.63473   365   %  2.0532
     366     -60.68233      4.35680        -56.32553  -0.63731   366   %  2.0560
     367     -60.68652      4.36049        -56.32603  -0.63781   367   %  2.0584
     368     -60.69249      4.36571        -56.32678  -0.63857   368   %  2.0619
     369     -60.70082      4.37306        -56.32776  -0.63955   369   %  2.0669
     370     -60.71254      4.38342        -56.32912  -0.64091   370   %  2.0739
     371     -60.72862      4.39591        -56.33272  -0.64450   371   %  2.0824
     372     -60.73896      4.40515        -56.33381  -0.64559   372   %  2.0888
     373     -60.75307      4.41761        -56.33546  -0.64725   373   %  2.0974
     374     -60.76956      4.43122        -56.33834  -0.65013   374   %  2.1068
     375     -60.78234      4.44249        -56.33985  -0.65164   375   %  2.1147
     376     -60.79604      4.45536        -56.34068  -0.65247   376   %  2.1238
     377     -60.81652      4.47341        -56.34311  -0.65490   377   %  2.1365
     378     -60.83377      4.48958        -56.34419  -0.65597   378   %  2.1481
     379     -60.85882      4.51142        -56.34740  -0.65918   379   %  2.1638
     380     -60.87838      4.52844        -56.34993  -0.66172   380   %  2.1761
     381     -60.89527      4.54339        -56.35188  -0.66367   381   %  2.1871
     382     -60.91265      4.55843        -56.35422  -0.66601   382   %  2.1981
     383     -60.92807      4.57222        -56.35584  -0.66763   383   %  2.2083
     384     -60.96252      4.58748        -56.37504  -0.68683   384   %  2.2196
     385     -60.96787      4.59243        -56.37544  -0.68722   385   %  2.2233
     386     -60.97521      4.59929        -56.37592  -0.68771   386   %  2.2284
     387     -60.98626      4.60894        -56.37733  -0.68911   387   %  2.2357
     388     -60.99940      4.62039        -56.37902  -0.69080   388   %  2.2443
     389     -61.01825      4.63276        -56.38548  -0.69727   389   %  2.2537
     390     -61.06074      4.63959        -56.42115  -0.73294   390   %  2.2589
     391     -61.06264      4.64121        -56.42142  -0.73321   391   %  2.2601
     392     -61.06529      4.64350        -56.42179  -0.73358   392   %  2.2619
     393     -61.06901      4.64672        -56.42229  -0.73408   393   %  2.2643
     394     -61.07367      4.65126        -56.42241  -0.73420   394   %  2.2677
     395     -61.08101      4.65766        -56.42334  -0.73513   395   %  2.2725
     396     -61.09134      4.66667        -56.42467  -0.73645   396   %  2.2793
     397     -61.10404      4.67768        -56.42636  -0.73814   397   %  2.2877
     398     -61.11774      4.68958        -56.42816  -0.73995   398   %  2.2969
     399     -61.13234      4.70201        -56.43034  -0.74213   399   %  2.3066
     400     -61.24120      4.71383        -56.52737  -0.83916   400   %  2.3159


          FINAL GEOMETRY OBTAINED                                 CHARGE
 PM7 CHARGE=1 EPS=8.2 IRC=1 LARGE=100 LET CYCLES=10000
 ortho (in 1,1,2,2-tetrachloroethane (TeCA)) (irc)

   C    0.000000  0    0.000000  0    0.000000  0   0  0  0   -0.3978     400AA*
   C    2.659241  1    0.000000  0    0.000000  0   1  0  0    0.6215     400AB*
   C    1.399474  1   89.828525  1    0.000000  0   1  2  0    0.3926     400AC*
   C    1.394901  1  107.342101  1  119.116961  1   1  2  3   -0.0678     400AD*
   O    1.130595  1   83.445761  1  248.023448  1   2  1  3    0.1069     400AE*
   C    1.396336  1  123.146456  1  113.013160  1   3  1  2   -0.2795     400AF*
   C    1.391204  1  120.334702  1  259.803590  1   4  1  2   -0.2281     400AG*
   C    1.390576  1  117.520979  1  357.296679  1   6  3  1   -0.0537     400AH*
   O    1.330850  1  117.503699  1  297.734029  1   3  1  2   -0.5547     400AI*
   H    1.093684  1  119.551327  1   80.168480  1   4  1  2    0.1713     400AJ*
   H    1.091329  1  119.852406  1  178.883340  1   7  4  1    0.1798     400AK*
   H    1.089508  1  120.655149  1  178.058111  1   6  3  1    0.1960     400AL*
   H    1.094893  1  119.665472  1  180.042759  1   8  6  3    0.1789     400AM*
  Al    1.707186  1  157.765604  1   57.879810  1   9  3  1    0.4689     400AN*
  Cl    2.036821  1  123.865602  1  250.734568  1  14  9  3   -0.2035     400AO*
  Cl    2.041021  1  119.175130  1   84.722488  1  14  9  3   -0.2133     400AP*
   H    1.087799  1   78.277992  1  237.545313  1   1  2  3    0.1885     400AQ*
   C    1.418554  1  101.289951  1   69.290714  1   2  1  3   -0.4322     400AR*
   H    1.164503  1  114.021400  1   24.373579  1  18  2  1    0.2975     400AS*
   H    1.171841  1  112.582984  1  245.393159  1  18  2  1    0.2984     400AT*
   H    1.158387  1  109.551643  1  135.777261  1  18  2  1    0.3303     400AU*


     POINT   POTENTIAL  +  ENERGY LOST   =   TOTAL      ERROR    REF%   MOVEMENT
     401     -61.24311      4.71552        -56.52758  -0.83937   401   %  2.3173
     402     -61.24579      4.71792        -56.52787  -0.83966   402   %  2.3191
     403     -61.24965      4.72130        -56.52835  -0.84013   403   %  2.3218
     404     -61.25512      4.72607        -56.52905  -0.84084   404   %  2.3255
     405     -61.25873      4.73280        -56.52593  -0.83772   405   %  2.3308
     406     -61.26437      4.73816        -56.52620  -0.83799   406   %  2.3350
     407     -61.27312      4.74573        -56.52739  -0.83918   407   %  2.3410
     408     -61.29194      4.75548        -56.53646  -0.84825   408   %  2.3488
     409     -61.29723      4.76005        -56.53718  -0.84897   409   %  2.3525
     410     -61.30494      4.76648        -56.53846  -0.85024   410   %  2.3577
     411     -61.28360      4.77452        -56.50908  -0.82087   411   %  2.3641
     412     -61.28606      4.77661        -56.50945  -0.82124   412   %  2.3658
     413     -61.28950      4.77955        -56.50996  -0.82175   413   %  2.3682
     414     -61.29303      4.78370        -56.50934  -0.82113   414   %  2.3716
     415     -61.29984      4.78955        -56.51029  -0.82208   415   %  2.3764
     416     -61.24841      4.79780        -56.45061  -0.76240   416   %  2.3831
     417     -61.25019      4.79931        -56.45087  -0.76266   417   %  2.3844
     418     -61.25269      4.80145        -56.45124  -0.76302   418   %  2.3862
     419     -61.25621      4.80448        -56.45174  -0.76352   419   %  2.3887
     420     -61.26116      4.80874        -56.45243  -0.76421   420   %  2.3923
     421     -61.26808      4.81474        -56.45333  -0.76512   421   %  2.3974
     422     -61.27887      4.82320        -56.45567  -0.76746   422   %  2.4045
     423     -61.28866      4.83098        -56.45768  -0.76947   423   %  2.4110
     424     -61.29612      4.83870        -56.45742  -0.76921   424   %  2.4175
     425     -61.30866      4.84956        -56.45909  -0.77088   425   %  2.4266
     426     -61.32268      4.86137        -56.46131  -0.77310   426   %  2.4365
     427     -61.33552      4.87250        -56.46302  -0.77481   427   %  2.4459
     428     -61.34931      4.88447        -56.46485  -0.77663   428   %  2.4560
     429     -61.36479      4.89689        -56.46790  -0.77969   429   %  2.4666
     430     -61.37651      4.90687        -56.46964  -0.78142   430   %  2.4751
     431     -61.38835      4.91752        -56.47082  -0.78261   431   %  2.4842
     432     -61.40404      4.93126        -56.47278  -0.78457   432   %  2.4960
     433     -61.42099      4.94504        -56.47594  -0.78773   433   %  2.5079
     434     -61.43026      4.95593        -56.47433  -0.78612   434   %  2.5173
     435     -61.44775      4.96798        -56.47978  -0.79156   435   %  2.5277
     436     -61.45290      4.97525        -56.47765  -0.78944   436   %  2.5342
     437     -61.46053      4.98228        -56.47825  -0.79004   437   %  2.5403
     438     -61.46997      4.99218        -56.47780  -0.78958   438   %  2.5491
     439     -61.49252      5.00610        -56.48642  -0.79820   439   %  2.5612
     440     -61.49188      5.01284        -56.47903  -0.79082   440   %  2.5673
     441     -61.49501      5.01631        -56.47871  -0.79049   441   %  2.5703
     442     -61.50070      5.02117        -56.47953  -0.79132   442   %  2.5747
     443     -61.50911      5.02803        -56.48108  -0.79286   443   %  2.5808
     444     -61.51815      5.03580        -56.48235  -0.79414   444   %  2.5877
     445     -61.52943      5.04550        -56.48394  -0.79572   445   %  2.5965
     446     -61.54105      5.05632        -56.48474  -0.79652   446   %  2.6062
     447     -61.57735      5.07152        -56.50583  -0.81761   447   %  2.6200
     448     -61.60592      5.07620        -56.52973  -0.84151   448   %  2.6240
     449     -61.58177      5.07755        -56.50423  -0.81601   449   %  2.6252
     450     -61.58220      5.07792        -56.50428  -0.81607   450   %  2.6256
     451     -61.58281      5.07845        -56.50435  -0.81614   451   %  2.6260
     452     -61.58429      5.07920        -56.50509  -0.81687   452   %  2.6267
     453     -61.58550      5.08026        -56.50524  -0.81703   453   %  2.6277
     454     -61.58721      5.08175        -56.50546  -0.81724   454   %  2.6290
     455     -61.58963      5.08387        -56.50577  -0.81755   455   %  2.6309
     456     -61.59307      5.08685        -56.50622  -0.81801   456   %  2.6336
     457     -61.59786      5.09106        -56.50680  -0.81859   457   %  2.6374
     458     -61.60418      5.09699        -56.50719  -0.81898   458   %  2.6429
     459     -61.61390      5.10535        -56.50855  -0.82034   459   %  2.6505
     460     -61.62565      5.11543        -56.51022  -0.82201   460   %  2.6598
     461     -61.63848      5.12641        -56.51207  -0.82386   461   %  2.6700
     462     -61.65112      5.13774        -56.51338  -0.82516   462   %  2.6806
     463     -61.66983      5.15170        -56.51814  -0.82992   463   %  2.6936
     464     -61.67793      5.16067        -56.51726  -0.82905   464   %  2.7020
     465     -61.69537      5.17330        -56.52206  -0.83385   465   %  2.7140
     466     -61.70240      5.18140        -56.52101  -0.83279   466   %  2.7216
     467     -61.71790      5.19249        -56.52541  -0.83720   467   %  2.7322
     468     -61.72467      5.19992        -56.52475  -0.83653   468   %  2.7393
     469     -61.73892      5.21039        -56.52853  -0.84032   469   %  2.7493
     470     -61.74581      5.21797        -56.52784  -0.83963   470   %  2.7565
     471     -61.76138      5.22866        -56.53272  -0.84451   471   %  2.7668
     472     -61.76702      5.23552        -56.53150  -0.84329   472   %  2.7734
     473     -61.78167      5.24426        -56.53741  -0.84920   473   %  2.7817
     474     -61.78536      5.24936        -56.53600  -0.84779   474   %  2.7866
     475     -61.79450      5.25532        -56.53918  -0.85097   475   %  2.7924
     476     -61.80025      5.26003        -56.54022  -0.85201   476   %  2.7970
     477     -61.80768      5.26654        -56.54114  -0.85293   477   %  2.8033
     478     -61.81871      5.27571        -56.54300  -0.85479   478   %  2.8123
     479     -61.82937      5.28517        -56.54420  -0.85598   479   %  2.8215
     480     -61.84260      5.29735        -56.54525  -0.85704   480   %  2.8336
     481     -61.86601      5.31403        -56.55199  -0.86377   481   %  2.8499
     482     -61.87423      5.32347        -56.55076  -0.86255   482   %  2.8592
     483     -61.89110      5.33626        -56.55484  -0.86663   483   %  2.8702
     484     -61.89575      5.34891        -56.54684  -0.85863   484   %  2.8788
     485     -61.90422      5.35667        -56.54754  -0.85933   485   %  2.8825
     486     -61.91114      5.36238        -56.54876  -0.86055   486   %  2.8881
     487     -61.91940      5.36960        -56.54980  -0.86159   487   %  2.8953
     488     -61.93089      5.37959        -56.55130  -0.86309   488   %  2.9054
     489     -61.95957      5.39130        -56.56827  -0.88006   489   %  2.9167
     490     -61.96323      5.39583        -56.56740  -0.87919   490   %  2.9208
     491     -61.96946      5.40132        -56.56814  -0.87992   491   %  2.9264
     492     -61.97878      5.40906        -56.56972  -0.88150   492   %  2.9343
     493     -61.98911      5.41775        -56.57136  -0.88315   493   %  2.9431
     494     -62.00233      5.42731        -56.57502  -0.88680   494   %  2.9529
     495     -62.01003      5.43441        -56.57562  -0.88741   495   %  2.9600
     496     -62.02041      5.44443        -56.57598  -0.88777   496   %  2.9703
     497     -62.03941      5.45910        -56.58031  -0.89210   497   %  2.9844
     498     -62.04550      5.47404        -56.57146  -0.88325   498   %  2.9947
     499     -62.05700      5.48746        -56.56955  -0.88133   499   %  2.9988
     500     -62.06146      5.49310        -56.56836  -0.88015   500   %  3.0036


          FINAL GEOMETRY OBTAINED                                 CHARGE
 PM7 CHARGE=1 EPS=8.2 IRC=1 LARGE=100 LET CYCLES=10000
 ortho (in 1,1,2,2-tetrachloroethane (TeCA)) (irc)

   C    0.000000  0    0.000000  0    0.000000  0   0  0  0   -0.3842     500AA*
   C    2.741330  1    0.000000  0    0.000000  0   1  0  0    0.6216     500AB*
   C    1.398980  1   88.048781  1    0.000000  0   1  2  0    0.3847     500AC*
   C    1.393993  1  108.997900  1  118.700667  1   1  2  3   -0.0695     500AD*
   O    1.130277  1   81.440015  1  248.294661  1   2  1  3    0.1091     500AE*
   C    1.395744  1  123.227329  1  113.874799  1   3  1  2   -0.2777     500AF*
   C    1.392215  1  120.330368  1  261.165771  1   4  1  2   -0.2262     500AG*
   C    1.391189  1  117.487887  1  357.108905  1   6  3  1   -0.0582     500AH*
   O    1.332003  1  117.437096  1  298.780877  1   3  1  2   -0.5523     500AI*
   H    1.093336  1  119.592143  1   81.390914  1   4  1  2    0.1708     500AJ*
   H    1.091130  1  119.806042  1  178.721748  1   7  4  1    0.1793     500AK*
   H    1.089265  1  120.714446  1  178.041631  1   6  3  1    0.1951     500AL*
   H    1.094613  1  119.645019  1  180.327939  1   8  6  3    0.1785     500AM*
  Al    1.703660  1  159.450287  1   59.818639  1   9  3  1    0.4697     500AN*
  Cl    2.038478  1  124.037451  1  250.129844  1  14  9  3   -0.2078     500AO*
  Cl    2.042743  1  119.560025  1   83.851267  1  14  9  3   -0.2175     500AP*
   H    1.087223  1   77.496792  1  237.052600  1   1  2  3    0.1877     500AQ*
   C    1.417328  1  102.103139  1   69.553436  1   2  1  3   -0.4350     500AR*
   H    1.165574  1  113.735304  1   24.672080  1  18  2  1    0.2999     500AS*
   H    1.172069  1  112.895203  1  245.564168  1  18  2  1    0.3006     500AT*
   H    1.158255  1  109.851715  1  135.997976  1  18  2  1    0.3313     500AU*


     POINT   POTENTIAL  +  ENERGY LOST   =   TOTAL      ERROR    REF%   MOVEMENT
     501     -62.06825      5.49916        -56.56909  -0.88088   501   %  3.0096
     502     -62.07742      5.50759        -56.56983  -0.88162   502   %  3.0183
     503     -62.09147      5.51978        -56.57169  -0.88348   503   %  3.0303
     504     -62.09779      5.53585        -56.56193  -0.87372   504   %  3.0434
     505     -62.10891      5.55501        -56.55390  -0.86569   505   %  3.0485
     506     -62.11236      5.56091        -56.55145  -0.86324   506   %  3.0515
     507     -62.11529      5.56340        -56.55189  -0.86368   507   %  3.0541
     508     -62.11949      5.56683        -56.55266  -0.86445   508   %  3.0577
     509     -62.12523      5.57165        -56.55358  -0.86537   509   %  3.0628
     510     -62.13334      5.57846        -56.55488  -0.86667   510   %  3.0701
     511     -62.19342      5.58686        -56.60656  -0.91835   511   %  3.0790
     512     -62.19539      5.58851        -56.60687  -0.91866   512   %  3.0808
     513     -62.19818      5.59084        -56.60733  -0.91912   513   %  3.0832
     514     -62.20212      5.59414        -56.60798  -0.91977   514   %  3.0868
     515     -62.16399      5.59878        -56.56521  -0.87700   515   %  3.0917
     516     -62.16519      5.59979        -56.56540  -0.87719   516   %  3.0928
     517     -62.16689      5.60122        -56.56567  -0.87746   517   %  3.0944
     518     -62.16135      5.60323        -56.55812  -0.86990   518   %  3.0967
     519     -62.16259      5.60426        -56.55832  -0.87011   519   %  3.0978
     520     -62.16434      5.60572        -56.55862  -0.87040   520   %  3.0994
     521     -62.16682      5.60778        -56.55903  -0.87082   521   %  3.1017
     522     -62.11692      5.61069        -56.50623  -0.81801   522   %  3.1048
     523     -62.11761      5.61126        -56.50635  -0.81813   523   %  3.1055
     524     -62.11857      5.61206        -56.50651  -0.81830   524   %  3.1063
     525     -62.11994      5.61319        -56.50674  -0.81853   525   %  3.1076
     526     -62.12186      5.61479        -56.50707  -0.81886   526   %  3.1093
     527     -62.12456      5.61704        -56.50752  -0.81931   527   %  3.1117
     528     -62.12838      5.62023        -56.50815  -0.81994   528   %  3.1152
     529     -62.13376      5.62472        -56.50904  -0.82083   529   %  3.1201
     530     -62.14135      5.63106        -56.51029  -0.82208   530   %  3.1270
     531     -62.15203      5.63905        -56.51298  -0.82476   531   %  3.1357
     532     -62.16023      5.64592        -56.51431  -0.82610   532   %  3.1432
     533     -62.17025      5.65430        -56.51596  -0.82774   533   %  3.1523
     534     -62.18063      5.66349        -56.51714  -0.82892   534   %  3.1623
     535     -62.25024      5.67538        -56.57485  -0.88664   535   %  3.1754
     536     -62.25281      5.67759        -56.57522  -0.88700   536   %  3.1778
     537     -62.25486      5.68071        -56.57415  -0.88594   537   %  3.1812
     538     -62.25991      5.68497        -56.57494  -0.88672   538   %  3.1858
     539     -62.26690      5.69098        -56.57592  -0.88770   539   %  3.1924
     540     -62.27697      5.69945        -56.57752  -0.88931   540   %  3.2017
     541     -62.28819      5.70885        -56.57934  -0.89113   541   %  3.2121
     542     -62.30899      5.71867        -56.59032  -0.90211   542   %  3.2230
     543     -62.31398      5.72284        -56.59114  -0.90293   543   %  3.2276
     544     -62.32100      5.72872        -56.59228  -0.90406   544   %  3.2341
     545     -62.33029      5.73649        -56.59379  -0.90558   545   %  3.2428
     546     -62.32850      5.74538        -56.58312  -0.89491   546   %  3.2527
     547     -62.33294      5.74920        -56.58373  -0.89552   547   %  3.2570
     548     -62.33930      5.75459        -56.58471  -0.89650   548   %  3.2630
     549     -62.34831      5.76219        -56.58612  -0.89791   549   %  3.2715
     550     -62.35909      5.77118        -56.58791  -0.89970   550   %  3.2816
     551     -62.31280      5.78064        -56.53215  -0.84394   551   %  3.2923
     552     -62.31498      5.78243        -56.53255  -0.84434   552   %  3.2943
     553     -62.31805      5.78496        -56.53310  -0.84489   553   %  3.2972
     554     -62.32235      5.78852        -56.53383  -0.84562   554   %  3.3012
     555     -62.32841      5.79355        -56.53485  -0.84664   555   %  3.3069
     556     -62.33681      5.80056        -56.53625  -0.84804   556   %  3.3149
     557     -62.34348      5.80891        -56.53457  -0.84636   557   %  3.3245
     558     -62.35431      5.81798        -56.53633  -0.84812   558   %  3.3348
     559     -62.36567      5.82761        -56.53806  -0.84985   559   %  3.3459
     560     -62.37792      5.83789        -56.54003  -0.85182   560   %  3.3576
     561     -62.44407      5.84822        -56.59584  -0.90763   561   %  3.3697
     562     -62.44531      5.85020        -56.59511  -0.90689   562   %  3.3719
     563     -62.44847      5.85296        -56.59551  -0.90730   563   %  3.3750
     564     -62.45313      5.85685        -56.59628  -0.90807   564   %  3.3794
     565     -62.45974      5.86233        -56.59741  -0.90920   565   %  3.3858
     566     -62.46840      5.86960        -56.59880  -0.91059   566   %  3.3942
     567     -62.47893      5.87828        -56.60065  -0.91244   567   %  3.4043
     568     -62.48949      5.88726        -56.60223  -0.91401   568   %  3.4147
     569     -62.50193      5.89735        -56.60458  -0.91637   569   %  3.4265
     570     -62.51412      5.90658        -56.60753  -0.91932   570   %  3.4373
     571     -62.52363      5.91416        -56.60947  -0.92125   571   %  3.4463
     572     -62.53214      5.92185        -56.61029  -0.92207   572   %  3.4553
     573     -62.54611      5.93272        -56.61340  -0.92518   573   %  3.4681
     574     -62.55688      5.94157        -56.61531  -0.92710   574   %  3.4781
     575     -62.56395      5.95129        -56.61265  -0.92444   575   %  3.4890
     576     -62.57144      5.96265        -56.60879  -0.92058   576   %  3.4974
     577     -62.57378      5.97659        -56.59719  -0.90898   577   %  3.5046
     578     -62.58440      5.98248        -56.60192  -0.91370   578   %  3.5070
     579     -62.58585      5.98401        -56.60184  -0.91363   579   %  3.5087
     580     -62.58824      5.98610        -56.60214  -0.91393   580   %  3.5112
     581     -62.59177      5.98903        -56.60273  -0.91452   581   %  3.5147
     582     -62.59686      5.99317        -56.60368  -0.91547   582   %  3.5196
     583     -62.60405      5.99901        -56.60504  -0.91683   583   %  3.5266
     584     -62.61278      6.00608        -56.60670  -0.91848   584   %  3.5351
     585     -62.61714      6.01382        -56.60332  -0.91510   585   %  3.5444
     586     -62.62949      6.01976        -56.60973  -0.92152   586   %  3.5514
     587     -62.62667      6.02306        -56.60361  -0.91540   587   %  3.5554
     588     -62.55265      6.02495        -56.52770  -0.83949   588   %  3.5576
     589     -62.55301      6.02527        -56.52774  -0.83953   589   %  3.5580
     590     -62.55352      6.02572        -56.52780  -0.83959   590   %  3.5586
     591     -62.58109      6.02635        -56.55474  -0.86652   591   %  3.5593
     592     -62.58130      6.02652        -56.55478  -0.86656   592   %  3.5595
     593     -62.55472      6.02676        -56.52797  -0.83975   593   %  3.5598
     594     -62.58166      6.02682        -56.55483  -0.86662   594   %  3.5599
     595     -62.55482      6.02684        -56.52798  -0.83977   595   %  3.5599
     596     -62.55483      6.02685        -56.52798  -0.83977   596   %  3.5599
     597     -62.55483      6.02685        -56.52798  -0.83977   597   %  3.5599
     598     -62.58170      6.02686        -56.55484  -0.86663   598   %  3.5599
     599     -62.58171      6.02687        -56.55484  -0.86663   599   %  3.5599
     600     -62.55486      6.02687        -56.52798  -0.83977   600   %  3.5599


          FINAL GEOMETRY OBTAINED                                 CHARGE
 PM7 CHARGE=1 EPS=8.2 IRC=1 LARGE=100 LET CYCLES=10000
 ortho (in 1,1,2,2-tetrachloroethane (TeCA)) (irc)

   C    0.000000  0    0.000000  0    0.000000  0   0  0  0   -0.3757     600AA*
   C    2.796844  1    0.000000  0    0.000000  0   1  0  0    0.6228     600AB*
   C    1.398681  1   86.653845  1    0.000000  0   1  2  0    0.3801     600AC*
   C    1.393605  1  110.481048  1  118.349363  1   1  2  3   -0.0699     600AD*
   O    1.130066  1   80.143783  1  248.553184  1   2  1  3    0.1096     600AE*
   C    1.395445  1  123.270335  1  114.693190  1   3  1  2   -0.2765     600AF*
   C    1.392714  1  120.340074  1  262.086573  1   4  1  2   -0.2251     600AG*
   C    1.391488  1  117.482324  1  357.116406  1   6  3  1   -0.0607     600AH*
   O    1.332691  1  117.431341  1  299.589295  1   3  1  2   -0.5510     600AI*
   H    1.093432  1  119.599421  1   82.239931  1   4  1  2    0.1706     600AJ*
   H    1.091260  1  119.783284  1  178.700471  1   7  4  1    0.1791     600AK*
   H    1.089312  1  120.739610  1  178.096875  1   6  3  1    0.1947     600AL*
   H    1.094583  1  119.636116  1  180.433297  1   8  6  3    0.1783     600AM*
  Al    1.701538  1  160.850196  1   61.270060  1   9  3  1    0.4700     600AN*
  Cl    2.040181  1  124.240858  1  249.687981  1  14  9  3   -0.2117     600AO*
  Cl    2.043452  1  119.695538  1   83.252044  1  14  9  3   -0.2188     600AP*
   H    1.087396  1   77.015259  1  236.555506  1   1  2  3    0.1862     600AQ*
   C    1.416602  1  102.798582  1   69.813903  1   2  1  3   -0.4369     600AR*
   H    1.166024  1  113.625477  1   24.814604  1  18  2  1    0.3005     600AS*
   H    1.172454  1  113.103801  1  245.608132  1  18  2  1    0.3024     600AT*
   H    1.158200  1  109.997226  1  136.093950  1  18  2  1    0.3321     600AU*


     POINT   POTENTIAL  +  ENERGY LOST   =   TOTAL      ERROR    REF%   MOVEMENT
     601     -62.58172      6.02687        -56.55484  -0.86663   601   %  3.5599
     602     -62.55486      6.02688        -56.52799  -0.83977   602   %  3.5599
     603     -62.58172      6.02688        -56.55484  -0.86663   603   %  3.5599
     604     -62.55487      6.02689        -56.52799  -0.83977   604   %  3.5600
     605     -62.58173      6.02689        -56.55484  -0.86663   605   %  3.5600
     606     -62.55488      6.02689        -56.52799  -0.83977   606   %  3.5600
     607     -62.58174      6.02690        -56.55484  -0.86663   607   %  3.5600
     608     -62.55489      6.02690        -56.52799  -0.83978   608   %  3.5600
     609     -62.58175      6.02690        -56.55484  -0.86663   609   %  3.5600
     610     -62.55490      6.02691        -56.52799  -0.83978   610   %  3.5600
     611     -62.58175      6.02691        -56.55485  -0.86663   611   %  3.5600
     612     -62.55490      6.02691        -56.52799  -0.83978   612   %  3.5600
     613     -62.58176      6.02692        -56.55485  -0.86663   613   %  3.5600
     614     -62.55491      6.02692        -56.52799  -0.83978   614   %  3.5600
     615     -62.55492      6.02692        -56.52799  -0.83978   615   %  3.5600
     616     -62.58178      6.02693        -56.55485  -0.86663   616   %  3.5600
     617     -62.58178      6.02693        -56.55485  -0.86664   617   %  3.5600
     618     -62.55493      6.02694        -56.52800  -0.83978   618   %  3.5600
     619     -62.55494      6.02694        -56.52800  -0.83978   619   %  3.5600
     620     -62.58180      6.02695        -56.55485  -0.86664   620   %  3.5600
     621     -62.58180      6.02695        -56.55485  -0.86664   621   %  3.5600
     622     -62.55495      6.02695        -56.52800  -0.83979   622   %  3.5600
     623     -62.55496      6.02696        -56.52800  -0.83979   623   %  3.5600
     624     -62.58181      6.02696        -56.55485  -0.86664   624   %  3.5600


           POTENTIAL ENERGY HAS STOPPED DROPPING


 **********************
 *                    *
 * JOB ENDED NORMALLY *
 *                    *
 **********************



 TOTAL JOB TIME:            31.76 SECONDS

 == MOPAC DONE ==
