 *******************************************************************************
 ** Cite this program as: MOPAC2016, Version: 22.066W, James J. P. Stewart,   **
 **                           web-site: HTTP://OpenMOPAC.net.                 **
 *******************************************************************************
 **                                                                           **
 **                                MOPAC2016                                  **
 **                                                                           **
 *******************************************************************************

                              PM7 CALCULATION RESULTS

 *******************************************************************************
 *  CALCULATION DONE:                                Tue May 10 10:02:20 2022  *
 *  PM7        - The PM7 Hamiltonian to be used
 *  GEO_DAT    - DATA SET GEOMETRY IS IN FILE "B2_TS.arc"
 *
 *
 *
 *                 CHARGE ON SYSTEM = +1
 *
 *
 *
 *  EPS=8.2    - USE ANDREAS KLAMT'S COSMO IMPLICIT SOLVATION MODEL
 *  IRC=N      - INTRINSIC REACTION COORDINATE -1 DEFINED
 *  LET        - OVERRIDE SOME SAFETY CHECKS
 *  T=         - A TIME OF 172800.0 SECONDS REQUESTED
 *  DUMP=N     - RESTART FILE WRITTEN EVERY 7200.0 SECONDS REQUESTED
 *  CYCLES=    - DO A MAXIMUM OF 10000 STEPS
 *  LARGE      - EXPANDED OUTPUT TO BE PRINTED
 *******************************************************************************
PM7 CHARGE=1 EPS=8.2 IRC=-1 LARGE=100 LET CYCLES=10000 GEO_DAT="B2_TS.arc"
 ortho (in 1,1,2,2-tetrachloroethane (TeCA)) (irc)

   ATOM   CHEMICAL          X               Y               Z
  NUMBER   SYMBOL      (ANGSTROMS)     (ANGSTROMS)     (ANGSTROMS)
 
     1       C          0.00000000      0.00000000      0.00000000   
     2       C          2.09044236  *   0.00000000      0.00000000   
     3       C         -0.17337325  *   1.40681009  *   0.00000000   
     4       C         -0.45003820  *  -0.69346386  *  -1.16002425  *
     5       O          2.34266601  *  -0.44184077  *  -1.02780670  *
     6       C         -0.69448105  *   2.11635580  *  -1.09540998  *
     7       C         -0.95369612  *  -0.01068449  *  -2.24117671  *
     8       C         -1.08445585  *   1.39700607  *  -2.20787661  *
     9       O          0.25588772  *   2.07182323  *   1.04332622  *
    10       H         -0.38483473  *  -1.78760184  *  -1.16840970  *
    11       H         -1.27678055  *  -0.54927359  *  -3.13611350  *
    12       H         -0.78797280  *   3.20319946  *  -1.04688231  *
    13       H         -1.50562158  *   1.91538231  *  -3.07990132  *
    14      Al          1.50067143  *   2.46447976  *   2.19436370  *
    15      Cl          1.41129848  *   1.93370842  *   4.15034368  *
    16      Cl          2.77928871  *   3.96649890  *   1.68939954  *
    17       H          0.01587757  *  -0.56250155  *   0.94449490  *
    18       C          2.52709729  *   0.51873677  *   1.27726258  *
    19       H          1.77773070  *   0.37645281  *   2.15334223  *
    20       H          3.06487512  *   1.55185265  *   1.15636631  *
    21       H          3.40893700  *  -0.12463564  *   1.64745654  *
 


          CARTESIAN COORDINATES 

    NO.       ATOM           X           Y           Z

     1         C          0.0000      0.0000      0.0000
     2         C          2.0904      0.0000      0.0000
     3         C         -0.1734      1.4068      0.0000
     4         C         -0.4500     -0.6935     -1.1600
     5         O          2.3427     -0.4418     -1.0278
     6         C         -0.6945      2.1164     -1.0954
     7         C         -0.9537     -0.0107     -2.2412
     8         C         -1.0845      1.3970     -2.2079
     9         O          0.2559      2.0718      1.0433
    10         H         -0.3848     -1.7876     -1.1684
    11         H         -1.2768     -0.5493     -3.1361
    12         H         -0.7880      3.2032     -1.0469
    13         H         -1.5056      1.9154     -3.0799
    14        Al          1.5007      2.4645      2.1944
    15        Cl          1.4113      1.9337      4.1503
    16        Cl          2.7793      3.9665      1.6894
    17         H          0.0159     -0.5625      0.9445
    18         C          2.5271      0.5187      1.2773
    19         H          1.7777      0.3765      2.1533
    20         H          3.0649      1.5519      1.1564
    21         H          3.4089     -0.1246      1.6475

 General Reference for PM7:
 "Optimization of Parameters for Semiempirical Methods VI: More Modifications to the 
 NDDO Approximations and Re-optimization of Parameters", J. J. P. Stewart, J. Mol. Mod., 1:32, 19 (2013)
 https://link.springer.com/article/10.1007/s00894-012-1667-x

           Empirical Formula: C8 H8 O2 Al Cl2  =    21 atoms



      MOLECULAR POINT GROUP   :   C1  


      RHF CALCULATION, NO. OF DOUBLY OCCUPIED LEVELS = 34



 ALL CONVERGERS ARE NOW FORCED ON
 SHIFT=10, PULAY ON, CAMP-KING ON
 AND ITERATION COUNTER RESET




          HEAT OF FORMATION =     -55.385665 KCALS/MOLE


          GRADIENT NORM =   1.77088


          TIME FOR SCF CALCULATION =    2.21

          TIME FOR DERIVATIVES     =    0.04

          MOLECULAR WEIGHT =  234.04


          ESTIMATED TIME TO COMPLETE CALCULATION =      283.50 SECONDS

    FOR POINT-GROUP C1   THERE ARE   1 UNIQUE SYMMETRY FUNCTIONS.

 STEP:   1 TIME =     0.07 SECS, INTEGRAL =      0.07 TIME LEFT: 172797.68
 STEP:   2 TIME =     0.07 SECS, INTEGRAL =      0.14 TIME LEFT: 172797.61
 STEP:   3 TIME =     0.07 SECS, INTEGRAL =      0.21 TIME LEFT: 172797.54
 STEP:   4 TIME =     0.07 SECS, INTEGRAL =      0.29 TIME LEFT: 172797.46
 STEP:   5 TIME =     0.07 SECS, INTEGRAL =      0.36 TIME LEFT: 172797.39
 STEP:   6 TIME =     0.07 SECS, INTEGRAL =      0.42 TIME LEFT: 172797.33
 STEP:   7 TIME =     0.07 SECS, INTEGRAL =      0.50 TIME LEFT: 172797.25
 STEP:   8 TIME =     0.08 SECS, INTEGRAL =      0.57 TIME LEFT: 172797.18
 STEP:   9 TIME =     0.07 SECS, INTEGRAL =      0.65 TIME LEFT: 172797.10
 STEP:  10 TIME =     0.09 SECS, INTEGRAL =      0.74 TIME LEFT: 172797.01
 STEP:  11 TIME =     0.09 SECS, INTEGRAL =      0.83 TIME LEFT: 172796.92
 STEP:  12 TIME =     0.07 SECS, INTEGRAL =      0.90 TIME LEFT: 172796.85
 STEP:  13 TIME =     0.07 SECS, INTEGRAL =      0.97 TIME LEFT: 172796.78
 STEP:  14 TIME =     0.09 SECS, INTEGRAL =      1.05 TIME LEFT: 172796.70
 STEP:  15 TIME =     0.07 SECS, INTEGRAL =      1.12 TIME LEFT: 172796.63
 STEP:  16 TIME =     0.07 SECS, INTEGRAL =      1.19 TIME LEFT: 172796.56
 STEP:  17 TIME =     0.07 SECS, INTEGRAL =      1.26 TIME LEFT: 172796.49
 STEP:  18 TIME =     0.08 SECS, INTEGRAL =      1.34 TIME LEFT: 172796.41
 STEP:  19 TIME =     0.08 SECS, INTEGRAL =      1.42 TIME LEFT: 172796.33
 STEP:  20 TIME =     0.07 SECS, INTEGRAL =      1.49 TIME LEFT: 172796.26
 STEP:  21 TIME =     0.09 SECS, INTEGRAL =      1.58 TIME LEFT: 172796.17
 STEP:  22 TIME =     0.07 SECS, INTEGRAL =      1.65 TIME LEFT: 172796.10
 STEP:  23 TIME =     0.09 SECS, INTEGRAL =      1.74 TIME LEFT: 172796.01
 STEP:  24 TIME =     0.08 SECS, INTEGRAL =      1.82 TIME LEFT: 172795.93
 STEP:  25 TIME =     0.07 SECS, INTEGRAL =      1.89 TIME LEFT: 172795.86
 STEP:  26 TIME =     0.07 SECS, INTEGRAL =      1.97 TIME LEFT: 172795.78
 STEP:  27 TIME =     0.08 SECS, INTEGRAL =      2.05 TIME LEFT: 172795.70
 STEP:  28 TIME =     0.08 SECS, INTEGRAL =      2.13 TIME LEFT: 172795.62
 STEP:  29 TIME =     0.05 SECS, INTEGRAL =      2.18 TIME LEFT: 172795.57
 STEP:  30 TIME =     0.07 SECS, INTEGRAL =      2.25 TIME LEFT: 172795.50
 STEP:  31 TIME =     0.07 SECS, INTEGRAL =      2.32 TIME LEFT: 172795.43
 STEP:  32 TIME =     0.09 SECS, INTEGRAL =      2.41 TIME LEFT: 172795.34
 STEP:  33 TIME =     0.08 SECS, INTEGRAL =      2.49 TIME LEFT: 172795.26
 STEP:  34 TIME =     0.07 SECS, INTEGRAL =      2.56 TIME LEFT: 172795.19
 STEP:  35 TIME =     0.08 SECS, INTEGRAL =      2.64 TIME LEFT: 172795.11
 STEP:  36 TIME =     0.07 SECS, INTEGRAL =      2.71 TIME LEFT: 172795.04
 STEP:  37 TIME =     0.07 SECS, INTEGRAL =      2.78 TIME LEFT: 172794.97
 STEP:  38 TIME =     0.08 SECS, INTEGRAL =      2.86 TIME LEFT: 172794.89
 STEP:  39 TIME =     0.07 SECS, INTEGRAL =      2.93 TIME LEFT: 172794.82
 STEP:  40 TIME =     0.09 SECS, INTEGRAL =      3.01 TIME LEFT: 172794.74
 STEP:  41 TIME =     0.08 SECS, INTEGRAL =      3.09 TIME LEFT: 172794.66
 STEP:  42 TIME =     0.09 SECS, INTEGRAL =      3.18 TIME LEFT: 172794.57
 STEP:  43 TIME =     0.08 SECS, INTEGRAL =      3.26 TIME LEFT: 172794.49
 STEP:  44 TIME =     0.07 SECS, INTEGRAL =      3.32 TIME LEFT: 172794.43
 STEP:  45 TIME =     0.06 SECS, INTEGRAL =      3.39 TIME LEFT: 172794.36
 STEP:  46 TIME =     0.07 SECS, INTEGRAL =      3.45 TIME LEFT: 172794.30
 STEP:  47 TIME =     0.07 SECS, INTEGRAL =      3.53 TIME LEFT: 172794.22
 STEP:  48 TIME =     0.08 SECS, INTEGRAL =      3.61 TIME LEFT: 172794.14
 STEP:  49 TIME =     0.06 SECS, INTEGRAL =      3.66 TIME LEFT: 172794.09
 STEP:  50 TIME =     0.06 SECS, INTEGRAL =      3.73 TIME LEFT: 172794.02
 STEP:  51 TIME =     0.06 SECS, INTEGRAL =      3.79 TIME LEFT: 172793.96
 STEP:  52 TIME =     0.06 SECS, INTEGRAL =      3.85 TIME LEFT: 172793.90
 STEP:  53 TIME =     0.06 SECS, INTEGRAL =      3.91 TIME LEFT: 172793.84
 STEP:  54 TIME =     0.09 SECS, INTEGRAL =      4.00 TIME LEFT: 172793.75
 STEP:  55 TIME =     0.08 SECS, INTEGRAL =      4.08 TIME LEFT: 172793.67
 STEP:  56 TIME =     0.07 SECS, INTEGRAL =      4.15 TIME LEFT: 172793.60
 STEP:  57 TIME =     0.07 SECS, INTEGRAL =      4.21 TIME LEFT: 172793.54
 STEP:  58 TIME =     0.08 SECS, INTEGRAL =      4.30 TIME LEFT: 172793.45
 STEP:  59 TIME =     0.08 SECS, INTEGRAL =      4.38 TIME LEFT: 172793.38
 STEP:  60 TIME =     0.07 SECS, INTEGRAL =      4.44 TIME LEFT: 172793.31
 STEP:  61 TIME =     0.07 SECS, INTEGRAL =      4.51 TIME LEFT: 172793.24
 STEP:  62 TIME =     0.07 SECS, INTEGRAL =      4.58 TIME LEFT: 172793.17
 STEP:  63 TIME =     0.07 SECS, INTEGRAL =      4.65 TIME LEFT: 172793.10
           INITIAL VELOCITY IN DRC (Angstroms/Femtosecond)
        -0.10261         0.00150         0.00427
         0.18444         0.00701         0.00067
        -0.02163        -0.01645        -0.00422
        -0.03751         0.00281         0.01147
        -0.02900        -0.01111        -0.01894
         0.00110        -0.00193        -0.00326
        -0.00655         0.00990        -0.01266
         0.00105         0.00005        -0.00889
         0.00779        -0.00962        -0.00012
        -0.05303         0.00383         0.00619
         0.01753         0.00732        -0.01649
         0.01776        -0.00351        -0.00398
         0.01107         0.00851        -0.00565
        -0.02114         0.01249        -0.00118
         0.00156        -0.00057         0.00130
         0.00401        -0.00198         0.00201
         0.09347        -0.00449        -0.01905
         0.03321         0.00186         0.02181
        -0.04876        -0.03233        -0.05025
         0.02782         0.01683         0.08881
         0.02715         0.03161         0.10831


     POINT   POTENTIAL  +  ENERGY LOST   =   TOTAL      ERROR    REF%   MOVEMENT
       1     -55.38619      0.00000        -55.38619   0.00000     1   %  0.0000
       2     -55.83961      0.00000        -55.83961  -0.45342     2   %  0.2948
       3     -56.11801      0.00000        -56.11801  -0.27840     3   %  0.3724
       4     -56.19859      0.11278        -56.08581  -0.24620     4   %  0.3839
       5     -56.18634      0.13814        -56.04820  -0.20860     5   %  0.3870
       6     -56.18873      0.14440        -56.04433  -0.20473     6   %  0.3878
       7     -56.20568      0.14903        -56.05666  -0.21705     7   %  0.3883
       8     -56.20684      0.15090        -56.05594  -0.21634     8   %  0.3886
       9     -56.20855      0.15355        -56.05500  -0.21539     9   %  0.3889
      10     -56.21113      0.15732        -56.05381  -0.21420    10   %  0.3894
      11     -56.23343      0.16221        -56.07123  -0.23162    11   %  0.3900
      12     -56.23469      0.16386        -56.07082  -0.23121    12   %  0.3902
      13     -56.23634      0.16621        -56.07013  -0.23052    13   %  0.3905
      14     -56.24158      0.16954        -56.07204  -0.23243    14   %  0.3909
      15     -56.23857      0.17296        -56.06561  -0.22600    15   %  0.3913
      16     -56.24039      0.17487        -56.06552  -0.22591    16   %  0.3915
      17     -56.24240      0.17759        -56.06481  -0.22520    17   %  0.3919
      18     -56.24531      0.18144        -56.06387  -0.22426    18   %  0.3923
      19     -56.24955      0.18690        -56.06265  -0.22304    19   %  0.3930
      20     -56.24883      0.19392        -56.05491  -0.21530    20   %  0.3939
      21     -56.24870      0.19750        -56.05121  -0.21160    21   %  0.3944
      22     -56.25088      0.20015        -56.05073  -0.21112    22   %  0.3947
      23     -56.25399      0.20392        -56.05008  -0.21047    23   %  0.3952
      24     -56.25847      0.20926        -56.04922  -0.20961    24   %  0.3958
      25     -56.26495      0.21683        -56.04812  -0.20851    25   %  0.3968
      26     -56.27392      0.22711        -56.04681  -0.20720    26   %  0.3981
      27     -56.29167      0.23989        -56.05179  -0.21218    27   %  0.3997
      28     -56.29894      0.24803        -56.05091  -0.21131    28   %  0.4008
      29     -56.30511      0.25962        -56.04549  -0.20589    29   %  0.4023
      30     -56.31163      0.26671        -56.04492  -0.20531    30   %  0.4032
      31     -56.32100      0.27681        -56.04419  -0.20458    31   %  0.4045
      32     -56.33443      0.29120        -56.04323  -0.20362    32   %  0.4064
      33     -56.37770      0.31174        -56.06596  -0.22636    33   %  0.4091
      34     -56.38356      0.31784        -56.06572  -0.22611    34   %  0.4099
      35     -56.37705      0.32654        -56.05050  -0.21090    35   %  0.4110
      36     -56.37993      0.32972        -56.05020  -0.21060    36   %  0.4114
      37     -56.38402      0.33425        -56.04977  -0.21017    37   %  0.4120
      38     -56.38985      0.34067        -56.04918  -0.20958    38   %  0.4129
      39     -56.39826      0.34979        -56.04847  -0.20886    39   %  0.4141
      40     -56.41018      0.36278        -56.04740  -0.20779    40   %  0.4158
      41     -56.42674      0.38068        -56.04606  -0.20645    41   %  0.4182
      42     -56.44000      0.40284        -56.03716  -0.19756    42   %  0.4211
      43     -56.45003      0.41353        -56.03649  -0.19688    43   %  0.4225
      44     -56.46479      0.42881        -56.03598  -0.19637    44   %  0.4246
      45     -56.48591      0.45065        -56.03527  -0.19566    45   %  0.4274
      46     -56.48832      0.48202        -56.00630  -0.16669    46   %  0.4316
      47     -56.49637      0.49047        -56.00590  -0.16629    47   %  0.4327
      48     -56.51106      0.50254        -56.00852  -0.16891    48   %  0.4343
      49     -56.52277      0.51318        -56.00959  -0.16998    49   %  0.4357
      50     -56.53662      0.52781        -56.00881  -0.16921    50   %  0.4376
      51     -56.55665      0.54872        -56.00793  -0.16833    51   %  0.4404
      52     -56.58279      0.57871        -56.00408  -0.16447    52   %  0.4443
      53     -56.60410      0.60075        -56.00335  -0.16374    53   %  0.4472
      54     -56.63485      0.63239        -56.00246  -0.16286    54   %  0.4513
      55     -56.67963      0.67807        -56.00156  -0.16195    55   %  0.4573
      56     -56.75020      0.74461        -56.00559  -0.16598    56   %  0.4659
      57     -56.79897      0.79345        -56.00551  -0.16591    57   %  0.4721
      58     -56.86963      0.86455        -56.00508  -0.16547    58   %  0.4811
      59     -56.97359      0.96935        -56.00424  -0.16463    59   %  0.4943
      60     -57.14345      1.12660        -56.01685  -0.17724    60   %  0.5137
      61     -57.21138      1.19415        -56.01723  -0.17763    61   %  0.5218
      62     -57.30876      1.29317        -56.01560  -0.17599    62   %  0.5336
      63     -57.39967      1.40785        -55.99182  -0.15222    63   %  0.5470
      64     -57.44126      1.44357        -55.99769  -0.15808    64   %  0.5510
      65     -57.46147      1.46466        -55.99681  -0.15720    65   %  0.5533
      66     -57.49119      1.49488        -55.99631  -0.15670    66   %  0.5567
      67     -57.53167      1.53813        -55.99354  -0.15393    67   %  0.5615
      68     -57.56376      1.57564        -55.98812  -0.14851    68   %  0.5656
      69     -57.58728      1.59877        -55.98851  -0.14890    69   %  0.5682
      70     -57.62153      1.63185        -55.98967  -0.15007    70   %  0.5718
      71     -57.65099      1.67566        -55.97533  -0.13572    71   %  0.5765
      72     -57.66736      1.69249        -55.97487  -0.13526    72   %  0.5783
      73     -57.70608      1.71649        -55.98959  -0.14998    73   %  0.5808
      74     -57.71460      1.72528        -55.98932  -0.14972    74   %  0.5817
      75     -57.72711      1.73777        -55.98934  -0.14974    75   %  0.5831
      76     -57.74456      1.75550        -55.98906  -0.14946    76   %  0.5849
      77     -57.76942      1.78073        -55.98869  -0.14908    77   %  0.5876
      78     -57.80863      1.81673        -55.99190  -0.15230    78   %  0.5914
      79     -57.83700      1.84547        -55.99153  -0.15193    79   %  0.5944
      80     -57.86218      1.88649        -55.97569  -0.13608    80   %  0.5987
      81     -57.87697      1.90151        -55.97546  -0.13585    81   %  0.6002
      82     -58.05004      1.92289        -56.12715  -0.28755    82   %  0.6024
      83     -57.90053      1.92535        -55.97518  -0.13557    83   %  0.6027
      84     -57.90081      1.92564        -55.97518  -0.13557    84   %  0.6027
      85     -57.90121      1.92604        -55.97517  -0.13556    85   %  0.6027
      86     -57.90177      1.92661        -55.97516  -0.13555    86   %  0.6028
      87     -57.90256      1.92742        -55.97514  -0.13554    87   %  0.6029
      88     -58.05563      1.92856        -56.12706  -0.28746    88   %  0.6030
      89     -57.90390      1.92878        -55.97512  -0.13551    89   %  0.6030
      90     -57.90411      1.92900        -55.97511  -0.13551    90   %  0.6030
      91     -58.05636      1.92931        -56.12705  -0.28744    91   %  0.6031
      92     -57.90463      1.92953        -55.97510  -0.13550    92   %  0.6031
      93     -57.90485      1.92975        -55.97510  -0.13549    93   %  0.6031
      94     -57.90426      1.93006        -55.97420  -0.13460    94   %  0.6032
      95     -58.05660      1.93050        -56.12610  -0.28649    95   %  0.6032
      96     -57.90491      1.93072        -55.97419  -0.13458    96   %  0.6032
      97     -57.90512      1.93094        -55.97419  -0.13458    97   %  0.6032
      98     -58.05733      1.93125        -56.12608  -0.28648    98   %  0.6033
      99     -57.90564      1.93146        -55.97418  -0.13457    99   %  0.6033
     100     -57.90586      1.93168        -55.97418  -0.13457   100   %  0.6033


          FINAL GEOMETRY OBTAINED                                 CHARGE
 PM7 CHARGE=1 EPS=8.2 IRC=-1 LARGE=100 LET CYCLES=10000
 ortho (in 1,1,2,2-tetrachloroethane (TeCA)) (irc)

   C    0.000000  0    0.000000  0    0.000000  0   0  0  0   -0.4587     100AA*
   C    1.891534  1    0.000000  0    0.000000  0   1  0  0    0.5972     100AB*
   C    1.443285  1   99.729589  1    0.000000  0   1  2  0    0.5968     100AC*
   C    1.451236  1  110.341426  1  120.787529  1   1  2  3    0.0263     100AD*
   O    1.165893  1  109.545277  1  246.920499  1   2  1  3   -0.2379     100AE*
   C    1.405734  1  123.463477  1  110.497204  1   3  1  2   -0.3731     100AF*
   C    1.364378  1  121.627496  1  255.494515  1   4  1  2   -0.2705     100AG*
   C    1.377416  1  118.433746  1    3.785390  1   6  3  1    0.1187     100AH*
   O    1.293404  1  116.606083  1  296.203169  1   3  1  2   -0.5484     100AI*
   H    1.097631  1  117.136310  1   74.441339  1   4  1  2    0.1891     100AJ*
   H    1.095436  1  120.766268  1  177.384034  1   7  4  1    0.2011     100AK*
   H    1.094500  1  119.654969  1  183.526607  1   6  3  1    0.2203     100AL*
   H    1.100935  1  120.402207  1  179.972772  1   8  6  3    0.1951     100AM*
  Al    1.756975  1  149.966154  1   49.106761  1   9  3  1    0.4853     100AN*
  Cl    2.025528  1  122.794400  1  247.961748  1  14  9  3   -0.1769     100AO*
  Cl    2.033078  1  116.415322  1   88.317921  1  14  9  3   -0.2002     100AP*
   H    1.111638  1   97.066735  1  239.942366  1   1  2  3    0.2460     100AQ*
   C    1.471863  1  111.355687  1   67.515123  1   2  1  3   -0.4448     100AR*
   H    1.159757  1  113.983885  1   25.937007  1  18  2  1    0.2658     100AS*
   H    1.165700  1  111.780909  1  248.017155  1  18  2  1    0.2705     100AT*
   H    1.144053  1  109.198644  1  137.829662  1  18  2  1    0.2983     100AU*


     POINT   POTENTIAL  +  ENERGY LOST   =   TOTAL      ERROR    REF%   MOVEMENT
     101     -57.90616      1.93199        -55.97417  -0.13456   101   %  0.6034
     102     -58.05849      1.93243        -56.12606  -0.28645   102   %  0.6034
     103     -57.90681      1.93265        -55.97416  -0.13455   103   %  0.6034
     104     -57.90703      1.93287        -55.97415  -0.13455   104   %  0.6034
     105     -58.05923      1.93318        -56.12604  -0.28644   105   %  0.6035
     106     -57.90755      1.93340        -55.97415  -0.13454   106   %  0.6035
     107     -57.90776      1.93362        -55.97414  -0.13453   107   %  0.6035
     108     -57.90807      1.93393        -55.97414  -0.13453   108   %  0.6035
     109     -58.06039      1.93437        -56.12602  -0.28641   109   %  0.6036
     110     -57.90872      1.93459        -55.97412  -0.13452   110   %  0.6036
     111     -57.90893      1.93481        -55.97412  -0.13451   111   %  0.6036
     112     -58.06112      1.93512        -56.12600  -0.28639   112   %  0.6037
     113     -57.90945      1.93534        -55.97411  -0.13451   113   %  0.6037
     114     -57.90967      1.93556        -55.97411  -0.13450   114   %  0.6037
     115     -57.90997      1.93587        -55.97410  -0.13450   115   %  0.6037
     116     -58.06229      1.93631        -56.12598  -0.28637   116   %  0.6038
     117     -57.91062      1.93653        -55.97409  -0.13448   117   %  0.6038
     118     -57.91084      1.93675        -55.97409  -0.13448   118   %  0.6038
     119     -58.06302      1.93706        -56.12596  -0.28635   119   %  0.6039
     120     -57.91136      1.93728        -55.97408  -0.13447   120   %  0.6039
     121     -57.91157      1.93750        -55.97407  -0.13447   121   %  0.6039
     122     -57.91188      1.93781        -55.97407  -0.13446   122   %  0.6039
     123     -58.06419      1.93825        -56.12593  -0.28633   123   %  0.6040
     124     -57.91253      1.93847        -55.97406  -0.13445   124   %  0.6040
     125     -57.91274      1.93869        -55.97405  -0.13445   125   %  0.6040
     126     -58.06492      1.93900        -56.12592  -0.28631   126   %  0.6041
     127     -57.91327      1.93922        -55.97405  -0.13444   127   %  0.6041
     128     -57.91348      1.93944        -55.97404  -0.13443   128   %  0.6041
     129     -57.91379      1.93975        -55.97404  -0.13443   129   %  0.6041
     130     -58.06609      1.94019        -56.12589  -0.28629   130   %  0.6042
     131     -57.91444      1.94041        -55.97402  -0.13442   131   %  0.6042
     132     -57.91465      1.94063        -55.97402  -0.13441   132   %  0.6042
     133     -58.06682      1.94094        -56.12588  -0.28627   133   %  0.6043
     134     -57.91517      1.94116        -55.97401  -0.13440   134   %  0.6043
     135     -57.91539      1.94138        -55.97401  -0.13440   135   %  0.6043
     136     -57.91570      1.94169        -55.97400  -0.13440   136   %  0.6043
     137     -58.06799      1.94214        -56.12585  -0.28624   137   %  0.6044
     138     -57.91635      1.94235        -55.97399  -0.13438   138   %  0.6044
     139     -57.91656      1.94258        -55.97399  -0.13438   139   %  0.6044
     140     -58.06872      1.94289        -56.12584  -0.28623   140   %  0.6045
     141     -57.91708      1.94311        -55.97398  -0.13437   141   %  0.6045
     142     -57.91730      1.94333        -55.97397  -0.13437   142   %  0.6045
     143     -57.91761      1.94364        -55.97397  -0.13436   143   %  0.6045
     144     -58.06989      1.94408        -56.12581  -0.28620   144   %  0.6046
     145     -57.91826      1.94430        -55.97396  -0.13435   145   %  0.6046
     146     -57.91847      1.94452        -55.97395  -0.13435   146   %  0.6046
     147     -58.07063      1.94483        -56.12580  -0.28619   147   %  0.6046
     148     -57.91900      1.94505        -55.97394  -0.13434   148   %  0.6047
     149     -57.91921      1.94527        -55.97394  -0.13433   149   %  0.6047
     150     -58.07136      1.94558        -56.12578  -0.28617   150   %  0.6047
     151     -57.91974      1.94580        -55.97393  -0.13433   151   %  0.6047
     152     -57.91995      1.94602        -55.97393  -0.13432   152   %  0.6048
     153     -57.92026      1.94634        -55.97392  -0.13432   153   %  0.6048
     154     -58.07253      1.94678        -56.12575  -0.28615   154   %  0.6048
     155     -57.92091      1.94700        -55.97391  -0.13430   155   %  0.6049
     156     -57.92113      1.94722        -55.97391  -0.13430   156   %  0.6049
     157     -58.07327      1.94753        -56.12574  -0.28613   157   %  0.6049
     158     -57.92165      1.94775        -55.97390  -0.13429   158   %  0.6049
     159     -57.92187      1.94797        -55.97390  -0.13429   159   %  0.6050
     160     -57.92217      1.94828        -55.97389  -0.13428   160   %  0.6050
     161     -58.07444      1.94872        -56.12571  -0.28611   161   %  0.6050
     162     -57.92282      1.94894        -55.97388  -0.13427   162   %  0.6051
     163     -57.92304      1.94916        -55.97387  -0.13427   163   %  0.6051
     164     -58.07517      1.94948        -56.12570  -0.28609   164   %  0.6051
     165     -57.92356      1.94970        -55.97387  -0.13426   165   %  0.6051
     166     -57.92378      1.94992        -55.97386  -0.13426   166   %  0.6052
     167     -58.07591      1.95023        -56.12568  -0.28608   167   %  0.6052
     168     -57.92430      1.95045        -55.97385  -0.13425   168   %  0.6052
     169     -57.92452      1.95067        -55.97385  -0.13424   169   %  0.6052
     170     -57.92483      1.95098        -55.97384  -0.13424   170   %  0.6053
     171     -58.07708      1.95143        -56.12566  -0.28605   171   %  0.6053
     172     -57.92548      1.95164        -55.97383  -0.13423   172   %  0.6053
     173     -57.92570      1.95187        -55.97383  -0.13422   173   %  0.6054
     174     -58.07782      1.95218        -56.12564  -0.28603   174   %  0.6054
     175     -57.92622      1.95240        -55.97382  -0.13421   175   %  0.6054
     176     -57.92644      1.95262        -55.97382  -0.13421   176   %  0.6054
     177     -58.07856      1.95293        -56.12563  -0.28602   177   %  0.6055
     178     -57.92696      1.95315        -55.97381  -0.13420   178   %  0.6055
     179     -57.92718      1.95337        -55.97380  -0.13420   179   %  0.6055
     180     -57.92748      1.95369        -55.97380  -0.13419   180   %  0.6055
     181     -58.07973      1.95413        -56.12560  -0.28599   181   %  0.6056
     182     -57.92814      1.95435        -55.97379  -0.13418   182   %  0.6056
     183     -57.92835      1.95457        -55.97378  -0.13418   183   %  0.6056
     184     -58.08047      1.95488        -56.12559  -0.28598   184   %  0.6057
     185     -57.92888      1.95510        -55.97378  -0.13417   185   %  0.6057
     186     -57.92910      1.95532        -55.97377  -0.13416   186   %  0.6057
     187     -58.08121      1.95564        -56.12557  -0.28596   187   %  0.6057
     188     -57.92962      1.95586        -55.97376  -0.13416   188   %  0.6058
     189     -57.92984      1.95608        -55.97376  -0.13415   189   %  0.6058
     190     -57.93014      1.95639        -55.97375  -0.13415   190   %  0.6058
     191     -58.08238      1.95683        -56.12554  -0.28594   191   %  0.6059
     192     -57.93080      1.95705        -55.97374  -0.13414   192   %  0.6059
     193     -57.93101      1.95728        -55.97374  -0.13413   193   %  0.6059
     194     -58.08312      1.95759        -56.12553  -0.28592   194   %  0.6059
     195     -57.93154      1.95781        -55.97373  -0.13412   195   %  0.6060
     196     -57.93176      1.95803        -55.97373  -0.13412   196   %  0.6060
     197     -58.08386      1.95834        -56.12551  -0.28591   197   %  0.6060
     198     -57.93228      1.95856        -55.97372  -0.13411   198   %  0.6060
     199     -57.93250      1.95879        -55.97371  -0.13411   199   %  0.6061
     200     -57.93281      1.95910        -55.97371  -0.13410   200   %  0.6061


          FINAL GEOMETRY OBTAINED                                 CHARGE
 PM7 CHARGE=1 EPS=8.2 IRC=-1 LARGE=100 LET CYCLES=10000
 ortho (in 1,1,2,2-tetrachloroethane (TeCA)) (irc)

   C    0.000000  0    0.000000  0    0.000000  0   0  0  0   -0.4583     200AA*
   C    1.890529  1    0.000000  0    0.000000  0   1  0  0    0.5972     200AB*
   C    1.443441  1   99.745024  1    0.000000  0   1  2  0    0.5971     200AC*
   C    1.451382  1  110.353180  1  120.787616  1   1  2  3    0.0264     200AD*
   O    1.166008  1  109.576183  1  246.920857  1   2  1  3   -0.2383     200AE*
   C    1.405732  1  123.465439  1  110.491673  1   3  1  2   -0.3732     200AF*
   C    1.364330  1  121.631043  1  255.495565  1   4  1  2   -0.2704     200AG*
   C    1.377401  1  118.436048  1    3.797011  1   6  3  1    0.1191     200AH*
   O    1.293320  1  116.600136  1  296.205683  1   3  1  2   -0.5483     200AI*
   H    1.097637  1  117.130386  1   74.437086  1   4  1  2    0.1891     200AJ*
   H    1.095447  1  120.767307  1  177.376350  1   7  4  1    0.2011     200AK*
   H    1.094514  1  119.653331  1  183.540578  1   6  3  1    0.2204     200AL*
   H    1.100946  1  120.403610  1  179.977590  1   8  6  3    0.1952     200AM*
  Al    1.757066  1  149.960728  1   49.095929  1   9  3  1    0.4850     200AN*
  Cl    2.025513  1  122.792770  1  247.954712  1  14  9  3   -0.1765     200AO*
  Cl    2.033065  1  116.413219  1   88.317430  1  14  9  3   -0.1998     200AP*
   H    1.111699  1   97.106035  1  239.946245  1   1  2  3    0.2461     200AQ*
   C    1.472003  1  111.373766  1   67.512923  1   2  1  3   -0.4451     200AR*
   H    1.159759  1  113.975615  1   25.936678  1  18  2  1    0.2649     200AS*
   H    1.165669  1  111.784082  1  248.023855  1  18  2  1    0.2708     200AT*
   H    1.144021  1  109.205693  1  137.828280  1  18  2  1    0.2973     200AU*


     POINT   POTENTIAL  +  ENERGY LOST   =   TOTAL      ERROR    REF%   MOVEMENT
     201     -58.08503      1.95954        -56.12549  -0.28588   201   %  0.6061
     202     -57.93346      1.95976        -55.97370  -0.13409   202   %  0.6062
     203     -57.93368      1.95998        -55.97369  -0.13409   203   %  0.6062
     204     -58.08577      1.96030        -56.12547  -0.28587   204   %  0.6062
     205     -57.93420      1.96052        -55.97368  -0.13408   205   %  0.6062
     206     -57.93442      1.96074        -55.97368  -0.13407   206   %  0.6063
     207     -58.08651      1.96105        -56.12546  -0.28585   207   %  0.6063
     208     -57.93495      1.96127        -55.97367  -0.13407   208   %  0.6063
     209     -57.93516      1.96150        -55.97367  -0.13406   209   %  0.6063
     210     -57.93547      1.96181        -55.97366  -0.13406   210   %  0.6064
     211     -58.08769      1.96225        -56.12543  -0.28583   211   %  0.6064
     212     -57.93613      1.96247        -55.97365  -0.13404   212   %  0.6064
     213     -57.93634      1.96270        -55.97365  -0.13404   213   %  0.6064
     214     -58.08843      1.96301        -56.12542  -0.28581   214   %  0.6065
     215     -57.93687      1.96323        -55.97364  -0.13403   215   %  0.6065
     216     -57.93709      1.96345        -55.97364  -0.13403   216   %  0.6065
     217     -58.08917      1.96377        -56.12540  -0.28580   217   %  0.6066
     218     -57.93761      1.96399        -55.97363  -0.13402   218   %  0.6066
     219     -57.93783      1.96421        -55.97362  -0.13402   219   %  0.6066
     220     -58.08991      1.96452        -56.12539  -0.28578   220   %  0.6066
     221     -57.93836      1.96474        -55.97361  -0.13401   221   %  0.6067
     222     -57.93858      1.96496        -55.97361  -0.13400   222   %  0.6067
     223     -57.93888      1.96528        -55.97360  -0.13400   223   %  0.6067
     224     -58.09108      1.96572        -56.12536  -0.28575   224   %  0.6068
     225     -57.93954      1.96594        -55.97359  -0.13399   225   %  0.6068
     226     -57.93976      1.96617        -55.97359  -0.13398   226   %  0.6068
     227     -58.09183      1.96648        -56.12535  -0.28574   227   %  0.6068
     228     -57.94028      1.96670        -55.97358  -0.13397   228   %  0.6069
     229     -57.94050      1.96692        -55.97358  -0.13397   229   %  0.6069
     230     -58.09257      1.96724        -56.12533  -0.28572   230   %  0.6069
     231     -57.94103      1.96746        -55.97357  -0.13396   231   %  0.6069
     232     -57.94125      1.96768        -55.97357  -0.13396   232   %  0.6069
     233     -57.94155      1.96799        -55.97356  -0.13395   233   %  0.6070
     234     -58.09374      1.96844        -56.12531  -0.28570   234   %  0.6070
     235     -57.94221      1.96866        -55.97355  -0.13394   235   %  0.6070
     236     -58.09418      1.96888        -56.12530  -0.28569   236   %  0.6071
     237     -57.94265      1.96910        -55.97354  -0.13394   237   %  0.6071
     238     -57.94286      1.96933        -55.97354  -0.13393   238   %  0.6071
     239     -57.94317      1.96964        -55.97353  -0.13393   239   %  0.6071
     240     -58.09536      1.97008        -56.12527  -0.28567   240   %  0.6072
     241     -57.94383      1.97031        -55.97352  -0.13391   241   %  0.6072
     242     -57.94405      1.97053        -55.97352  -0.13391   242   %  0.6072
     243     -58.09610      1.97084        -56.12526  -0.28565   243   %  0.6073
     244     -57.94457      1.97106        -55.97351  -0.13390   244   %  0.6073
     245     -57.94479      1.97129        -55.97351  -0.13390   245   %  0.6073
     246     -58.09684      1.97160        -56.12524  -0.28564   246   %  0.6073
     247     -57.94092      1.97182        -55.96910  -0.12950   247   %  0.6074
     248     -57.94114      1.97204        -55.96910  -0.12949   248   %  0.6074
     249     -58.09320      1.97236        -56.12084  -0.28123   249   %  0.6074
     250     -57.94167      1.97258        -55.96909  -0.12948   250   %  0.6074
     251     -57.94189      1.97280        -55.96909  -0.12948   251   %  0.6075
     252     -57.94220      1.97312        -55.96908  -0.12947   252   %  0.6075
     253     -58.09437      1.97356        -56.12081  -0.28121   253   %  0.6075
     254     -57.94285      1.97378        -55.96907  -0.12946   254   %  0.6076
     255     -57.94307      1.97400        -55.96907  -0.12946   255   %  0.6076
     256     -58.09512      1.97432        -56.12080  -0.28119   256   %  0.6076
     257     -57.94360      1.97454        -55.96906  -0.12945   257   %  0.6076
     258     -57.94382      1.97476        -55.96905  -0.12945   258   %  0.6077
     259     -58.09586      1.97507        -56.12079  -0.28118   259   %  0.6077
     260     -57.94434      1.97530        -55.96905  -0.12944   260   %  0.6077
     261     -57.94456      1.97552        -55.96904  -0.12944   261   %  0.6077
     262     -58.09660      1.97583        -56.12077  -0.28116   262   %  0.6078
     263     -57.94509      1.97605        -55.96903  -0.12943   263   %  0.6078
     264     -57.94531      1.97628        -55.96903  -0.12942   264   %  0.6078
     265     -58.09735      1.97659        -56.12076  -0.28115   265   %  0.6078
     266     -57.94583      1.97681        -55.96902  -0.12942   266   %  0.6079
     267     -57.94605      1.97703        -55.96902  -0.12941   267   %  0.6079
     268     -57.94636      1.97735        -55.96901  -0.12941   268   %  0.6079
     269     -58.09853      1.97779        -56.12073  -0.28112   269   %  0.6080
     270     -57.94702      1.97802        -55.96900  -0.12940   270   %  0.6080
     271     -57.94724      1.97824        -55.96900  -0.12939   271   %  0.6080
     272     -58.09927      1.97855        -56.12072  -0.28111   272   %  0.6080
     273     -57.94776      1.97877        -55.96899  -0.12938   273   %  0.6081
     274     -57.94798      1.97900        -55.96899  -0.12938   274   %  0.6081
     275     -58.10001      1.97931        -56.12070  -0.28110   275   %  0.6081
     276     -57.94851      1.97953        -55.96898  -0.12937   276   %  0.6081
     277     -57.94873      1.97975        -55.96898  -0.12937   277   %  0.6082
     278     -58.10076      1.98007        -56.12069  -0.28108   278   %  0.6082
     279     -57.94926      1.98029        -55.96897  -0.12936   279   %  0.6082
     280     -57.94948      1.98051        -55.96896  -0.12936   280   %  0.6082
     281     -58.10150      1.98083        -56.12067  -0.28107   281   %  0.6083
     282     -57.95001      1.98105        -55.96896  -0.12935   282   %  0.6083
     283     -57.95023      1.98127        -55.96895  -0.12935   283   %  0.6083
     284     -57.95053      1.98159        -55.96895  -0.12934   284   %  0.6083
     285     -58.10268      1.98203        -56.12065  -0.28104   285   %  0.6084
     286     -57.95119      1.98226        -55.96894  -0.12933   286   %  0.6084
     287     -58.10312      1.98248        -56.12064  -0.28103   287   %  0.6084
     288     -57.95163      1.98270        -55.96893  -0.12932   288   %  0.6085
     289     -57.95185      1.98292        -55.96893  -0.12932   289   %  0.6085
     290     -57.95216      1.98324        -55.96892  -0.12931   290   %  0.6085
     291     -58.10430      1.98368        -56.12062  -0.28101   291   %  0.6086
     292     -57.95282      1.98391        -55.96891  -0.12930   292   %  0.6086
     293     -58.10474      1.98413        -56.12061  -0.28100   293   %  0.6086
     294     -57.95325      1.98435        -55.96890  -0.12930   294   %  0.6086
     295     -57.95347      1.98457        -55.96890  -0.12929   295   %  0.6086
     296     -57.95378      1.98489        -55.96889  -0.12929   296   %  0.6087
     297     -58.10592      1.98533        -56.12058  -0.28098   297   %  0.6087
     298     -57.95444      1.98556        -55.96888  -0.12928   298   %  0.6087
     299     -58.10636      1.98578        -56.12058  -0.28097   299   %  0.6088
     300     -57.95488      1.98600        -55.96888  -0.12927   300   %  0.6088


          FINAL GEOMETRY OBTAINED                                 CHARGE
 PM7 CHARGE=1 EPS=8.2 IRC=-1 LARGE=100 LET CYCLES=10000
 ortho (in 1,1,2,2-tetrachloroethane (TeCA)) (irc)

   C    0.000000  0    0.000000  0    0.000000  0   0  0  0   -0.4580     300AA*
   C    1.889548  1    0.000000  0    0.000000  0   1  0  0    0.5970     300AB*
   C    1.443594  1   99.760094  1    0.000000  0   1  2  0    0.5972     300AC*
   C    1.451525  1  110.364646  1  120.787707  1   1  2  3    0.0265     300AD*
   O    1.166119  1  109.606389  1  246.921228  1   2  1  3   -0.2390     300AE*
   C    1.405729  1  123.467364  1  110.486320  1   3  1  2   -0.3733     300AF*
   C    1.364284  1  121.634493  1  255.496554  1   4  1  2   -0.2704     300AG*
   C    1.377386  1  118.438294  1    3.808294  1   6  3  1    0.1194     300AH*
   O    1.293239  1  116.594326  1  296.208087  1   3  1  2   -0.5482     300AI*
   H    1.097643  1  117.124623  1   74.432923  1   4  1  2    0.1892     300AJ*
   H    1.095459  1  120.768303  1  177.368870  1   7  4  1    0.2012     300AK*
   H    1.094527  1  119.651750  1  183.554191  1   6  3  1    0.2205     300AL*
   H    1.100958  1  120.404970  1  179.982339  1   8  6  3    0.1952     300AM*
  Al    1.757155  1  149.955395  1   49.085424  1   9  3  1    0.4850     300AN*
  Cl    2.025498  1  122.791175  1  247.947782  1  14  9  3   -0.1764     300AO*
  Cl    2.033053  1  116.411159  1   88.316918  1  14  9  3   -0.1997     300AP*
   H    1.111763  1   97.144433  1  239.950040  1   1  2  3    0.2462     300AQ*
   C    1.472140  1  111.391411  1   67.510755  1   2  1  3   -0.4451     300AR*
   H    1.159762  1  113.967625  1   25.936517  1  18  2  1    0.2649     300AS*
   H    1.165638  1  111.787169  1  248.030379  1  18  2  1    0.2708     300AT*
   H    1.143990  1  109.212566  1  137.826868  1  18  2  1    0.2973     300AU*


     POINT   POTENTIAL  +  ENERGY LOST   =   TOTAL      ERROR    REF%   MOVEMENT
     301     -57.95510      1.98622        -55.96887  -0.12927   301   %  0.6088
     302     -57.95541      1.98654        -55.96887  -0.12926   302   %  0.6088
     303     -58.10754      1.98699        -56.12055  -0.28094   303   %  0.6089
     304     -57.95607      1.98721        -55.96886  -0.12925   304   %  0.6089
     305     -58.10797      1.98743        -56.12054  -0.28094   305   %  0.6089
     306     -57.95650      1.98765        -55.96885  -0.12925   306   %  0.6090
     307     -57.95672      1.98788        -55.96885  -0.12924   307   %  0.6090
     308     -57.95661      1.98819        -55.96842  -0.12881   308   %  0.6090
     309     -58.10900      1.98864        -56.12036  -0.28075   309   %  0.6091
     310     -57.95727      1.98886        -55.96841  -0.12880   310   %  0.6091
     311     -58.10944      1.98908        -56.12035  -0.28075   311   %  0.6091
     312     -57.95770      1.98931        -55.96840  -0.12879   312   %  0.6091
     313     -57.95792      1.98953        -55.96840  -0.12879   313   %  0.6091
     314     -58.11018      1.98984        -56.12034  -0.28073   314   %  0.6092
     315     -57.95845      1.99007        -55.96839  -0.12878   315   %  0.6092
     316     -57.95867      1.99029        -55.96839  -0.12878   316   %  0.6092
     317     -58.11093      1.99061        -56.12033  -0.28072   317   %  0.6093
     318     -57.95921      1.99083        -55.96838  -0.12877   318   %  0.6093
     319     -57.95943      1.99105        -55.96837  -0.12877   319   %  0.6093
     320     -58.11168      1.99137        -56.12031  -0.28071   320   %  0.6093
     321     -57.95996      1.99159        -55.96837  -0.12876   321   %  0.6094
     322     -57.96018      1.99181        -55.96836  -0.12876   322   %  0.6094
     323     -58.11243      1.99213        -56.12030  -0.28069   323   %  0.6094
     324     -57.96071      1.99235        -55.96835  -0.12875   324   %  0.6094
     325     -57.96093      1.99257        -55.96835  -0.12874   325   %  0.6095
     326     -57.96124      1.99289        -55.96835  -0.12874   326   %  0.6095
     327     -58.11361      1.99334        -56.12027  -0.28067   327   %  0.6095
     328     -57.96190      1.99356        -55.96834  -0.12873   328   %  0.6096
     329     -58.11405      1.99378        -56.12027  -0.28066   329   %  0.6096
     330     -57.96234      1.99401        -55.96833  -0.12872   330   %  0.6096
     331     -57.96256      1.99423        -55.96833  -0.12872   331   %  0.6096
     332     -58.11480      1.99455        -56.12025  -0.28065   332   %  0.6097
     333     -57.96309      1.99477        -55.96832  -0.12871   333   %  0.6097
     334     -57.96331      1.99499        -55.96832  -0.12871   334   %  0.6097
     335     -58.11555      1.99531        -56.12024  -0.28063   335   %  0.6097
     336     -57.96384      1.99553        -55.96831  -0.12870   336   %  0.6098
     337     -57.96406      1.99576        -55.96830  -0.12870   337   %  0.6098
     338     -58.11630      1.99607        -56.12022  -0.28062   338   %  0.6098
     339     -57.96459      1.99629        -55.96830  -0.12869   339   %  0.6098
     340     -57.96481      1.99652        -55.96829  -0.12869   340   %  0.6098
     341     -58.11705      1.99684        -56.12021  -0.28060   341   %  0.6099
     342     -57.96429      1.99706        -55.96723  -0.12763   342   %  0.6099
     343     -57.96451      1.99728        -55.96723  -0.12762   343   %  0.6099
     344     -58.11684      1.99760        -56.11925  -0.27964   344   %  0.6100
     345     -57.96504      1.99782        -55.96722  -0.12761   345   %  0.6100
     346     -57.96526      1.99804        -55.96722  -0.12761   346   %  0.6100
     347     -58.12270      1.99836        -56.12434  -0.28473   347   %  0.6100
     348     -57.97170      1.99858        -55.97312  -0.13351   348   %  0.6101
     349     -57.97192      1.99881        -55.97311  -0.13351   349   %  0.6101
     350     -58.12345      1.99913        -56.12432  -0.28472   350   %  0.6101
     351     -57.97245      1.99935        -55.97311  -0.13350   351   %  0.6101
     352     -57.97267      1.99957        -55.97310  -0.13349   352   %  0.6102
     353     -58.12420      1.99989        -56.12431  -0.28470   353   %  0.6102
     354     -57.97321      2.00011        -55.97309  -0.13349   354   %  0.6102
     355     -57.97343      2.00034        -55.97309  -0.13348   355   %  0.6102
     356     -58.12495      2.00065        -56.12429  -0.28469   356   %  0.6103
     357     -57.97396      2.00088        -55.97308  -0.13347   357   %  0.6103
     358     -57.97418      2.00110        -55.97308  -0.13347   358   %  0.6103
     359     -58.12570      2.00142        -56.12428  -0.28467   359   %  0.6103
     360     -57.97471      2.00164        -55.97307  -0.13346   360   %  0.6104
     361     -57.97493      2.00187        -55.97307  -0.13346   361   %  0.6104
     362     -58.12644      2.00218        -56.12426  -0.28465   362   %  0.6104
     363     -57.97546      2.00241        -55.97306  -0.13345   363   %  0.6104
     364     -57.97568      2.00263        -55.97305  -0.13345   364   %  0.6105
     365     -58.12719      2.00295        -56.12425  -0.28464   365   %  0.6105
     366     -57.97622      2.00317        -55.97304  -0.13344   366   %  0.6105
     367     -57.97644      2.00340        -55.97304  -0.13343   367   %  0.6105
     368     -58.12794      2.00371        -56.12423  -0.28462   368   %  0.6106
     369     -57.97697      2.00394        -55.97303  -0.13343   369   %  0.6106
     370     -57.97719      2.00416        -55.97303  -0.13342   370   %  0.6106
     371     -58.12869      2.00448        -56.12422  -0.28461   371   %  0.6106
     372     -57.97772      2.00470        -55.97302  -0.13341   372   %  0.6107
     373     -57.97794      2.00493        -55.97302  -0.13341   373   %  0.6107
     374     -58.12945      2.00524        -56.12420  -0.28459   374   %  0.6107
     375     -57.97847      2.00547        -55.97301  -0.13340   375   %  0.6107
     376     -57.97870      2.00569        -55.97300  -0.13340   376   %  0.6108
     377     -58.13020      2.00601        -56.12419  -0.28458   377   %  0.6108
     378     -57.97923      2.00623        -55.97300  -0.13339   378   %  0.6108
     379     -57.97945      2.00646        -55.97299  -0.13339   379   %  0.6108
     380     -58.13095      2.00677        -56.12417  -0.28456   380   %  0.6109
     381     -57.97998      2.00700        -55.97298  -0.13338   381   %  0.6109
     382     -57.98020      2.00722        -55.97298  -0.13337   382   %  0.6109
     383     -58.13170      2.00754        -56.12416  -0.28455   383   %  0.6110
     384     -57.98074      2.00776        -55.97297  -0.13336   384   %  0.6110
     385     -57.98096      2.00799        -55.97297  -0.13336   385   %  0.6110
     386     -58.13245      2.00831        -56.12414  -0.28453   386   %  0.6110
     387     -57.98149      2.00853        -55.97296  -0.13335   387   %  0.6111
     388     -57.98171      2.00876        -55.97296  -0.13335   388   %  0.6111
     389     -58.13320      2.00907        -56.12413  -0.28452   389   %  0.6111
     390     -57.98224      2.00930        -55.97295  -0.13334   390   %  0.6111
     391     -57.98247      2.00952        -55.97294  -0.13334   391   %  0.6112
     392     -58.13395      2.00984        -56.12411  -0.28450   392   %  0.6112
     393     -57.98300      2.01006        -55.97294  -0.13333   393   %  0.6112
     394     -57.98322      2.01029        -55.97293  -0.13332   394   %  0.6112
     395     -58.13470      2.01061        -56.12410  -0.28449   395   %  0.6113
     396     -57.98375      2.01083        -55.97292  -0.13332   396   %  0.6113
     397     -57.98397      2.01105        -55.97292  -0.13331   397   %  0.6113
     398     -58.13545      2.01137        -56.12408  -0.28447   398   %  0.6113
     399     -57.98451      2.01160        -55.97291  -0.13330   399   %  0.6114
     400     -57.98473      2.01182        -55.97291  -0.13330   400   %  0.6114


          FINAL GEOMETRY OBTAINED                                 CHARGE
 PM7 CHARGE=1 EPS=8.2 IRC=-1 LARGE=100 LET CYCLES=10000
 ortho (in 1,1,2,2-tetrachloroethane (TeCA)) (irc)

   C    0.000000  0    0.000000  0    0.000000  0   0  0  0   -0.4578     400AA*
   C    1.888610  1    0.000000  0    0.000000  0   1  0  0    0.5968     400AB*
   C    1.443740  1   99.774494  1    0.000000  0   1  2  0    0.5974     400AC*
   C    1.451661  1  110.375597  1  120.787850  1   1  2  3    0.0265     400AD*
   O    1.166225  1  109.635268  1  246.921588  1   2  1  3   -0.2398     400AE*
   C    1.405726  1  123.469199  1  110.481263  1   3  1  2   -0.3734     400AF*
   C    1.364240  1  121.637761  1  255.497445  1   4  1  2   -0.2704     400AG*
   C    1.377373  1  118.440429  1    3.819020  1   6  3  1    0.1197     400AH*
   O    1.293161  1  116.588793  1  296.210363  1   3  1  2   -0.5481     400AI*
   H    1.097648  1  117.119187  1   74.428888  1   4  1  2    0.1892     400AJ*
   H    1.095470  1  120.769243  1  177.361742  1   7  4  1    0.2012     400AK*
   H    1.094540  1  119.650262  1  183.567177  1   6  3  1    0.2205     400AL*
   H    1.100969  1  120.406261  1  179.986917  1   8  6  3    0.1953     400AM*
  Al    1.757240  1  149.950268  1   49.075440  1   9  3  1    0.4850     400AN*
  Cl    2.025484  1  122.789648  1  247.941119  1  14  9  3   -0.1764     400AO*
  Cl    2.033042  1  116.409188  1   88.316407  1  14  9  3   -0.1997     400AP*
   H    1.111832  1   97.180997  1  239.953706  1   1  2  3    0.2466     400AQ*
   C    1.472272  1  111.408276  1   67.508654  1   2  1  3   -0.4453     400AR*
   H    1.159763  1  113.960054  1   25.936443  1  18  2  1    0.2647     400AS*
   H    1.165609  1  111.790100  1  248.036619  1  18  2  1    0.2707     400AT*
   H    1.143960  1  109.219121  1  137.825562  1  18  2  1    0.2972     400AU*


     POINT   POTENTIAL  +  ENERGY LOST   =   TOTAL      ERROR    REF%   MOVEMENT
     401     -58.13621      2.01214        -56.12407  -0.28446   401   %  0.6114
     402     -57.98526      2.01236        -55.97290  -0.13329   402   %  0.6114
     403     -58.13665      2.01259        -56.12406  -0.28445   403   %  0.6115
     404     -57.98571      2.01281        -55.97289  -0.13329   404   %  0.6115
     405     -57.98593      2.01304        -55.97289  -0.13328   405   %  0.6115
     406     -58.13740      2.01336        -56.12404  -0.28444   406   %  0.6115
     407     -57.98646      2.01358        -55.97288  -0.13327   407   %  0.6116
     408     -57.98668      2.01381        -55.97288  -0.13327   408   %  0.6116
     409     -58.13815      2.01412        -56.12403  -0.28442   409   %  0.6116
     410     -57.98722      2.01435        -55.97287  -0.13326   410   %  0.6116
     411     -57.98744      2.01457        -55.97286  -0.13326   411   %  0.6117
     412     -58.13891      2.01489        -56.12401  -0.28441   412   %  0.6117
     413     -57.98797      2.01512        -55.97286  -0.13325   413   %  0.6117
     414     -57.98819      2.01534        -55.97285  -0.13325   414   %  0.6117
     415     -58.13966      2.01566        -56.12400  -0.28439   415   %  0.6118
     416     -57.98873      2.01588        -55.97284  -0.13324   416   %  0.6118
     417     -57.98895      2.01611        -55.97284  -0.13323   417   %  0.6118
     418     -58.14041      2.01643        -56.12398  -0.28438   418   %  0.6118
     419     -57.98948      2.01665        -55.97283  -0.13323   419   %  0.6119
     420     -57.98970      2.01688        -55.97283  -0.13322   420   %  0.6119
     421     -58.14116      2.01720        -56.12397  -0.28436   421   %  0.6119
     422     -57.99024      2.01742        -55.97282  -0.13321   422   %  0.6119
     423     -57.99054      2.01764        -55.97289  -0.13329   423   %  0.6120
     424     -58.14200      2.01796        -56.12403  -0.28443   424   %  0.6120
     425     -57.99107      2.01819        -55.97289  -0.13328   425   %  0.6120
     426     -57.99129      2.01841        -55.97288  -0.13327   426   %  0.6120
     427     -58.14275      2.01873        -56.12402  -0.28441   427   %  0.6121
     428     -57.99183      2.01896        -55.97287  -0.13327   428   %  0.6121
     429     -58.14319      2.01918        -56.12401  -0.28440   429   %  0.6121
     430     -57.99227      2.01941        -55.97287  -0.13326   430   %  0.6121
     431     -57.99250      2.01963        -55.97286  -0.13326   431   %  0.6122
     432     -58.14395      2.01995        -56.12400  -0.28439   432   %  0.6122
     433     -57.99303      2.02018        -55.97285  -0.13325   433   %  0.6122
     434     -57.99325      2.02040        -55.97285  -0.13324   434   %  0.6122
     435     -58.14470      2.02072        -56.12398  -0.28437   435   %  0.6123
     436     -57.99379      2.02094        -55.97284  -0.13324   436   %  0.6123
     437     -57.99401      2.02117        -55.97284  -0.13323   437   %  0.6123
     438     -58.14545      2.02149        -56.12397  -0.28436   438   %  0.6124
     439     -57.99454      2.02171        -55.97283  -0.13322   439   %  0.6124
     440     -57.99477      2.02194        -55.97283  -0.13322   440   %  0.6124
     441     -58.16180      2.02226        -56.13954  -0.29994   441   %  0.6124
     442     -58.01090      2.02248        -55.98842  -0.14881   442   %  0.6125
     443     -58.16224      2.02271        -56.13953  -0.29993   443   %  0.6125
     444     -58.01134      2.02293        -55.98841  -0.14880   444   %  0.6125
     445     -58.01156      2.02316        -55.98840  -0.14880   445   %  0.6125
     446     -58.16299      2.02348        -56.13951  -0.29990   446   %  0.6126
     447     -58.01209      2.02370        -55.98839  -0.14878   447   %  0.6126
     448     -58.01231      2.02393        -55.98839  -0.14878   448   %  0.6126
     449     -58.16373      2.02424        -56.13949  -0.29988   449   %  0.6126
     450     -58.01284      2.02447        -55.98837  -0.14877   450   %  0.6127
     451     -58.16417      2.02469        -56.13948  -0.29987   451   %  0.6127
     452     -58.01328      2.02492        -55.98836  -0.14876   452   %  0.6127
     453     -58.01350      2.02514        -55.98836  -0.14875   453   %  0.6127
     454     -58.16492      2.02546        -56.13946  -0.29985   454   %  0.6128
     455     -58.01403      2.02569        -55.98834  -0.14874   455   %  0.6128
     456     -58.16536      2.02591        -56.13944  -0.29984   456   %  0.6128
     457     -58.01447      2.02614        -55.98833  -0.14873   457   %  0.6128
     458     -58.01469      2.02636        -55.98833  -0.14872   458   %  0.6128
     459     -58.16610      2.02668        -56.13942  -0.29982   459   %  0.6129
     460     -58.01522      2.02690        -55.98831  -0.14871   460   %  0.6129
     461     -58.16654      2.02713        -56.13941  -0.29981   461   %  0.6129
     462     -58.01566      2.02735        -55.98830  -0.14870   462   %  0.6129
     463     -58.01588      2.02758        -55.98830  -0.14869   463   %  0.6130
     464     -58.16729      2.02790        -56.13939  -0.29978   464   %  0.6130
     465     -58.01641      2.02812        -55.98829  -0.14868   465   %  0.6130
     466     -58.01663      2.02835        -55.98828  -0.14867   466   %  0.6130
     467     -58.16804      2.02867        -56.13937  -0.29976   467   %  0.6131
     468     -58.01716      2.02889        -55.98827  -0.14866   468   %  0.6131
     469     -58.16848      2.02912        -56.13936  -0.29975   469   %  0.6131
     470     -58.01760      2.02934        -55.98826  -0.14865   470   %  0.6131
     471     -58.01782      2.02957        -55.98825  -0.14865   471   %  0.6132
     472     -58.16964      2.02989        -56.13975  -0.30015   472   %  0.6132
     473     -58.01876      2.03011        -55.98865  -0.14904   473   %  0.6132
     474     -58.17008      2.03034        -56.13974  -0.30014   474   %  0.6132
     475     -58.01920      2.03056        -55.98864  -0.14903   475   %  0.6133
     476     -58.01969      2.03079        -55.98890  -0.14929   476   %  0.6133
     477     -58.17109      2.03111        -56.13998  -0.30038   477   %  0.6133
     478     -58.02022      2.03133        -55.98889  -0.14928   478   %  0.6133
     479     -58.17153      2.03156        -56.13997  -0.30036   479   %  0.6134
     480     -58.02066      2.03178        -55.98888  -0.14927   480   %  0.6134
     481     -58.02088      2.03201        -55.98887  -0.14926   481   %  0.6134
     482     -58.17228      2.03233        -56.13995  -0.30034   482   %  0.6134
     483     -58.02141      2.03255        -55.98886  -0.14925   483   %  0.6135
     484     -58.17272      2.03278        -56.13994  -0.30033   484   %  0.6135
     485     -58.02185      2.03300        -55.98885  -0.14924   485   %  0.6135
     486     -58.02207      2.03323        -55.98884  -0.14924   486   %  0.6135
     487     -58.17347      2.03355        -56.13992  -0.30031   487   %  0.6136
     488     -58.02258      2.03377        -55.98881  -0.14920   488   %  0.6136
     489     -58.17388      2.03400        -56.13988  -0.30028   489   %  0.6136
     490     -58.02302      2.03422        -55.98880  -0.14919   490   %  0.6136
     491     -58.02324      2.03445        -55.98879  -0.14918   491   %  0.6137
     492     -58.17463      2.03477        -56.13986  -0.30025   492   %  0.6137
     493     -58.02377      2.03499        -55.98878  -0.14917   493   %  0.6137
     494     -58.17507      2.03522        -56.13985  -0.30024   494   %  0.6137
     495     -58.02421      2.03545        -55.98877  -0.14916   495   %  0.6138
     496     -58.02443      2.03567        -55.98876  -0.14916   496   %  0.6138
     497     -58.17582      2.03599        -56.13983  -0.30022   497   %  0.6138
     498     -58.02497      2.03622        -55.98875  -0.14914   498   %  0.6138
     499     -58.02519      2.03644        -55.98874  -0.14914   499   %  0.6139
     500     -58.17657      2.03676        -56.13981  -0.30020   500   %  0.6139


          FINAL GEOMETRY OBTAINED                                 CHARGE
 PM7 CHARGE=1 EPS=8.2 IRC=-1 LARGE=100 LET CYCLES=10000
 ortho (in 1,1,2,2-tetrachloroethane (TeCA)) (irc)

   C    0.000000  0    0.000000  0    0.000000  0   0  0  0   -0.4577     500AA*
   C    1.887706  1    0.000000  0    0.000000  0   1  0  0    0.5967     500AB*
   C    1.443880  1   99.788354  1    0.000000  0   1  2  0    0.5977     500AC*
   C    1.451791  1  110.386139  1  120.788051  1   1  2  3    0.0266     500AD*
   O    1.166327  1  109.663052  1  246.921903  1   2  1  3   -0.2409     500AE*
   C    1.405723  1  123.470956  1  110.476428  1   3  1  2   -0.3736     500AF*
   C    1.364198  1  121.640881  1  255.498260  1   4  1  2   -0.2706     500AG*
   C    1.377360  1  118.442464  1    3.829331  1   6  3  1    0.1198     500AH*
   O    1.293087  1  116.583505  1  296.212570  1   3  1  2   -0.5481     500AI*
   H    1.097653  1  117.114018  1   74.424958  1   4  1  2    0.1892     500AJ*
   H    1.095480  1  120.770144  1  177.354900  1   7  4  1    0.2012     500AK*
   H    1.094552  1  119.648843  1  183.579667  1   6  3  1    0.2205     500AL*
   H    1.100979  1  120.407494  1  179.991336  1   8  6  3    0.1953     500AM*
  Al    1.757322  1  149.945305  1   49.065808  1   9  3  1    0.4854     500AN*
  Cl    2.025471  1  122.788177  1  247.934711  1  14  9  3   -0.1767     500AO*
  Cl    2.033031  1  116.407288  1   88.315953  1  14  9  3   -0.2001     500AP*
   H    1.111903  1   97.216032  1  239.957283  1   1  2  3    0.2466     500AQ*
   C    1.472399  1  111.424514  1   67.506598  1   2  1  3   -0.4451     500AR*
   H    1.159764  1  113.952879  1   25.936529  1  18  2  1    0.2654     500AS*
   H    1.165581  1  111.792776  1  248.042572  1  18  2  1    0.2703     500AT*
   H    1.143931  1  109.225481  1  137.824252  1  18  2  1    0.2980     500AU*


     POINT   POTENTIAL  +  ENERGY LOST   =   TOTAL      ERROR    REF%   MOVEMENT
     501     -58.02572      2.03699        -55.98873  -0.14912   501   %  0.6139
     502     -58.17701      2.03721        -56.13980  -0.30019   502   %  0.6139
     503     -58.02616      2.03744        -55.98872  -0.14911   503   %  0.6139
     504     -58.02638      2.03766        -55.98872  -0.14911   504   %  0.6140
     505     -58.17776      2.03798        -56.13977  -0.30017   505   %  0.6140
     506     -58.02691      2.03821        -55.98870  -0.14910   506   %  0.6140
     507     -58.17820      2.03844        -56.13976  -0.30016   507   %  0.6140
     508     -58.02735      2.03866        -55.98869  -0.14909   508   %  0.6141
     509     -58.02758      2.03889        -55.98869  -0.14908   509   %  0.6141
     510     -58.17895      2.03921        -56.13974  -0.30013   510   %  0.6141
     511     -58.02811      2.03943        -55.98867  -0.14907   511   %  0.6141
     512     -58.17939      2.03966        -56.13973  -0.30012   512   %  0.6142
     513     -58.02855      2.03988        -55.98866  -0.14906   513   %  0.6142
     514     -58.02877      2.04011        -55.98866  -0.14905   514   %  0.6142
     515     -58.17998      2.04043        -56.13955  -0.29995   515   %  0.6142
     516     -58.02915      2.04066        -55.98849  -0.14888   516   %  0.6143
     517     -58.18042      2.04088        -56.13954  -0.29993   517   %  0.6143
     518     -58.02959      2.04111        -55.98848  -0.14887   518   %  0.6143
     519     -58.02981      2.04133        -55.98847  -0.14887   519   %  0.6143
     520     -58.18117      2.04165        -56.13952  -0.29991   520   %  0.6144
     521     -58.03034      2.04188        -55.98846  -0.14886   521   %  0.6144
     522     -58.18162      2.04211        -56.13951  -0.29990   522   %  0.6144
     523     -58.03078      2.04233        -55.98845  -0.14885   523   %  0.6144
     524     -58.03100      2.04256        -55.98845  -0.14884   524   %  0.6145
     525     -58.18237      2.04288        -56.13949  -0.29988   525   %  0.6145
     526     -58.03154      2.04310        -55.98843  -0.14883   526   %  0.6145
     527     -58.18281      2.04333        -56.13948  -0.29987   527   %  0.6145
     528     -58.03198      2.04356        -55.98842  -0.14882   528   %  0.6146
     529     -58.03220      2.04378        -55.98842  -0.14881   529   %  0.6146
     530     -58.18356      2.04410        -56.13945  -0.29985   530   %  0.6146
     531     -58.03273      2.04433        -55.98841  -0.14880   531   %  0.6146
     532     -58.18400      2.04456        -56.13944  -0.29984   532   %  0.6147
     533     -58.03318      2.04478        -55.98840  -0.14879   533   %  0.6147
     534     -58.03340      2.04501        -55.98839  -0.14878   534   %  0.6147
     535     -58.18475      2.04533        -56.13942  -0.29981   535   %  0.6147
     536     -58.03393      2.04555        -55.98838  -0.14877   536   %  0.6148
     537     -58.18519      2.04578        -56.13941  -0.29980   537   %  0.6148
     538     -58.03437      2.04601        -55.98837  -0.14876   538   %  0.6148
     539     -58.18563      2.04623        -56.13940  -0.29979   539   %  0.6148
     540     -58.03482      2.04646        -55.98836  -0.14875   540   %  0.6149
     541     -58.03504      2.04669        -55.98835  -0.14874   541   %  0.6149
     542     -58.18638      2.04701        -56.13938  -0.29977   542   %  0.6149
     543     -58.03557      2.04723        -55.98834  -0.14873   543   %  0.6149
     544     -58.18683      2.04746        -56.13937  -0.29976   544   %  0.6150
     545     -58.03601      2.04768        -55.98833  -0.14872   545   %  0.6150
     546     -58.03624      2.04791        -55.98832  -0.14872   546   %  0.6150
     547     -58.18758      2.04823        -56.13935  -0.29974   547   %  0.6150
     548     -58.03677      2.04846        -55.98831  -0.14870   548   %  0.6151
     549     -58.18802      2.04869        -56.13933  -0.29973   549   %  0.6151
     550     -58.03721      2.04891        -55.98830  -0.14869   550   %  0.6151
     551     -58.03743      2.04914        -55.98830  -0.14869   551   %  0.6151
     552     -58.18877      2.04946        -56.13931  -0.29971   552   %  0.6152
     553     -58.03797      2.04969        -55.98828  -0.14868   553   %  0.6152
     554     -58.18921      2.04991        -56.13930  -0.29969   554   %  0.6152
     555     -58.03841      2.05014        -55.98827  -0.14867   555   %  0.6152
     556     -58.03863      2.05037        -55.98827  -0.14866   556   %  0.6152
     557     -58.18997      2.05069        -56.13928  -0.29967   557   %  0.6153
     558     -58.03917      2.05091        -55.98825  -0.14865   558   %  0.6153
     559     -58.19041      2.05114        -56.13927  -0.29966   559   %  0.6153
     560     -58.03961      2.05137        -55.98824  -0.14864   560   %  0.6153
     561     -58.03983      2.05159        -55.98824  -0.14863   561   %  0.6154
     562     -58.19116      2.05191        -56.13925  -0.29964   562   %  0.6154
     563     -58.04037      2.05214        -55.98823  -0.14862   563   %  0.6154
     564     -58.19160      2.05237        -56.13924  -0.29963   564   %  0.6154
     565     -58.04081      2.05259        -55.98822  -0.14861   565   %  0.6155
     566     -58.04103      2.05282        -55.98821  -0.14860   566   %  0.6155
     567     -58.19236      2.05314        -56.13922  -0.29961   567   %  0.6155
     568     -58.04157      2.05337        -55.98820  -0.14859   568   %  0.6155
     569     -58.19280      2.05360        -56.13920  -0.29960   569   %  0.6156
     570     -58.04201      2.05382        -55.98819  -0.14858   570   %  0.6156
     571     -58.19324      2.05405        -56.13919  -0.29959   571   %  0.6156
     572     -58.04245      2.05427        -55.98818  -0.14857   572   %  0.6156
     573     -58.04267      2.05450        -55.98817  -0.14857   573   %  0.6157
     574     -58.19400      2.05482        -56.13917  -0.29956   574   %  0.6157
     575     -58.04321      2.05505        -55.98816  -0.14855   575   %  0.6157
     576     -58.19444      2.05528        -56.13916  -0.29955   576   %  0.6157
     577     -58.04365      2.05550        -55.98815  -0.14854   577   %  0.6158
     578     -58.04388      2.05573        -55.98814  -0.14854   578   %  0.6158
     579     -58.19519      2.05605        -56.13914  -0.29953   579   %  0.6158
     580     -58.04441      2.05628        -55.98813  -0.14852   580   %  0.6158
     581     -58.19563      2.05651        -56.13913  -0.29952   581   %  0.6159
     582     -58.04485      2.05673        -55.98812  -0.14851   582   %  0.6159
     583     -58.04508      2.05696        -55.98812  -0.14851   583   %  0.6159
     584     -58.19639      2.05728        -56.13911  -0.29950   584   %  0.6159
     585     -58.04561      2.05751        -55.98810  -0.14850   585   %  0.6160
     586     -58.19683      2.05774        -56.13910  -0.29949   586   %  0.6160
     587     -58.04606      2.05796        -55.98809  -0.14849   587   %  0.6160
     588     -58.19727      2.05819        -56.13908  -0.29948   588   %  0.6160
     589     -58.04650      2.05842        -55.98808  -0.14848   589   %  0.6160
     590     -58.04672      2.05864        -55.98808  -0.14847   590   %  0.6161
     591     -58.19803      2.05897        -56.13906  -0.29946   591   %  0.6161
     592     -58.04726      2.05919        -55.98807  -0.14846   592   %  0.6161
     593     -58.19847      2.05942        -56.13905  -0.29945   593   %  0.6161
     594     -58.04770      2.05965        -55.98806  -0.14845   594   %  0.6162
     595     -58.04792      2.05987        -55.98805  -0.14844   595   %  0.6162
     596     -58.19923      2.06020        -56.13903  -0.29942   596   %  0.6162
     597     -58.04846      2.06042        -55.98804  -0.14843   597   %  0.6162
     598     -58.19967      2.06065        -56.13902  -0.29941   598   %  0.6163
     599     -58.04891      2.06088        -55.98803  -0.14842   599   %  0.6163
     600     -58.04913      2.06111        -55.98802  -0.14842   600   %  0.6163


          FINAL GEOMETRY OBTAINED                                 CHARGE
 PM7 CHARGE=1 EPS=8.2 IRC=-1 LARGE=100 LET CYCLES=10000
 ortho (in 1,1,2,2-tetrachloroethane (TeCA)) (irc)

   C    0.000000  0    0.000000  0    0.000000  0   0  0  0   -0.4573     600AA*
   C    1.886828  1    0.000000  0    0.000000  0   1  0  0    0.5967     600AB*
   C    1.444016  1   99.801834  1    0.000000  0   1  2  0    0.5979     600AC*
   C    1.451917  1  110.396387  1  120.788265  1   1  2  3    0.0267     600AD*
   O    1.166425  1  109.690073  1  246.922197  1   2  1  3   -0.2412     600AE*
   C    1.405721  1  123.472666  1  110.471739  1   3  1  2   -0.3737     600AF*
   C    1.364158  1  121.643905  1  255.499031  1   4  1  2   -0.2705     600AG*
   C    1.377347  1  118.444433  1    3.839346  1   6  3  1    0.1202     600AH*
   O    1.293016  1  116.578378  1  296.214711  1   3  1  2   -0.5480     600AI*
   H    1.097657  1  117.109005  1   74.421127  1   4  1  2    0.1893     600AJ*
   H    1.095490  1  120.771011  1  177.348265  1   7  4  1    0.2013     600AK*
   H    1.094564  1  119.647471  1  183.591805  1   6  3  1    0.2206     600AL*
   H    1.100988  1  120.408687  1  179.995645  1   8  6  3    0.1953     600AM*
  Al    1.757401  1  149.940454  1   49.056430  1   9  3  1    0.4851     600AN*
  Cl    2.025458  1  122.786746  1  247.928474  1  14  9  3   -0.1764     600AO*
  Cl    2.033020  1  116.405435  1   88.315539  1  14  9  3   -0.1997     600AP*
   H    1.111972  1   97.250069  1  239.960762  1   1  2  3    0.2467     600AQ*
   C    1.472521  1  111.440297  1   67.504580  1   2  1  3   -0.4454     600AR*
   H    1.159767  1  113.946000  1   25.936782  1  18  2  1    0.2646     600AS*
   H    1.165554  1  111.795284  1  248.048315  1  18  2  1    0.2706     600AT*
   H    1.143904  1  109.231706  1  137.822882  1  18  2  1    0.2970     600AU*


     POINT   POTENTIAL  +  ENERGY LOST   =   TOTAL      ERROR    REF%   MOVEMENT
     601     -58.20043      2.06143        -56.13900  -0.29939   601   %  0.6163
     602     -58.04966      2.06165        -55.98801  -0.14840   602   %  0.6164
     603     -58.20087      2.06188        -56.13899  -0.29938   603   %  0.6164
     604     -58.05011      2.06211        -55.98800  -0.14839   604   %  0.6164
     605     -58.20131      2.06234        -56.13898  -0.29937   605   %  0.6164
     606     -58.05055      2.06256        -55.98799  -0.14838   606   %  0.6165
     607     -58.05078      2.06279        -55.98798  -0.14838   607   %  0.6165
     608     -58.20207      2.06311        -56.13895  -0.29935   608   %  0.6165
     609     -58.05131      2.06334        -55.98797  -0.14836   609   %  0.6165
     610     -58.20251      2.06357        -56.13894  -0.29934   610   %  0.6166
     611     -58.05176      2.06380        -55.98796  -0.14835   611   %  0.6166
     612     -58.05198      2.06402        -55.98796  -0.14835   612   %  0.6166
     613     -58.20327      2.06435        -56.13892  -0.29932   613   %  0.6166
     614     -58.05252      2.06457        -55.98794  -0.14834   614   %  0.6167
     615     -58.20371      2.06480        -56.13891  -0.29930   615   %  0.6167
     616     -58.05296      2.06503        -55.98793  -0.14833   616   %  0.6167
     617     -58.20416      2.06526        -56.13890  -0.29929   617   %  0.6167
     618     -58.05341      2.06548        -55.98792  -0.14832   618   %  0.6168
     619     -58.05363      2.06571        -55.98792  -0.14831   619   %  0.6168
     620     -58.20491      2.06603        -56.13888  -0.29927   620   %  0.6168
     621     -58.05417      2.06626        -55.98791  -0.14830   621   %  0.6168
     622     -58.20536      2.06649        -56.13887  -0.29926   622   %  0.6169
     623     -58.05461      2.06672        -55.98790  -0.14829   623   %  0.6169
     624     -58.05483      2.06694        -55.98789  -0.14828   624   %  0.6169
     625     -58.20611      2.06727        -56.13885  -0.29924   625   %  0.6169
     626     -58.05537      2.06749        -55.98788  -0.14827   626   %  0.6170
     627     -58.20656      2.06772        -56.13884  -0.29923   627   %  0.6170
     628     -58.05582      2.06795        -55.98787  -0.14826   628   %  0.6170
     629     -58.20700      2.06818        -56.13882  -0.29922   629   %  0.6170
     630     -58.05626      2.06840        -55.98786  -0.14825   630   %  0.6170
     631     -58.05649      2.06863        -55.98785  -0.14825   631   %  0.6171
     632     -58.20776      2.06896        -56.13880  -0.29920   632   %  0.6171
     633     -58.05702      2.06918        -55.98784  -0.14823   633   %  0.6171
     634     -58.20820      2.06941        -56.13879  -0.29919   634   %  0.6171
     635     -58.05747      2.06964        -55.98783  -0.14822   635   %  0.6172
     636     -58.05769      2.06987        -55.98782  -0.14822   636   %  0.6172
     637     -58.20896      2.07019        -56.13877  -0.29916   637   %  0.6172
     638     -58.05823      2.07042        -55.98781  -0.14821   638   %  0.6172
     639     -58.20941      2.07065        -56.13876  -0.29915   639   %  0.6173
     640     -58.05868      2.07087        -55.98780  -0.14820   640   %  0.6173
     641     -58.20985      2.07110        -56.13875  -0.29914   641   %  0.6173
     642     -58.05912      2.07133        -55.98779  -0.14819   642   %  0.6173
     643     -58.05934      2.07156        -55.98779  -0.14818   643   %  0.6174
     644     -58.21061      2.07188        -56.13873  -0.29912   644   %  0.6174
     645     -58.05988      2.07211        -55.98777  -0.14817   645   %  0.6174
     646     -58.21105      2.07234        -56.13872  -0.29911   646   %  0.6174
     647     -58.06033      2.07256        -55.98776  -0.14816   647   %  0.6175
     648     -58.21150      2.07279        -56.13871  -0.29910   648   %  0.6175
     649     -58.06078      2.07302        -55.98775  -0.14815   649   %  0.6175
     650     -58.06100      2.07325        -55.98775  -0.14814   650   %  0.6175
     651     -58.21226      2.07357        -56.13868  -0.29908   651   %  0.6176
     652     -58.06154      2.07380        -55.98774  -0.14813   652   %  0.6176
     653     -58.21270      2.07403        -56.13867  -0.29907   653   %  0.6176
     654     -58.06198      2.07426        -55.98773  -0.14812   654   %  0.6176
     655     -58.21315      2.07448        -56.13866  -0.29906   655   %  0.6177
     656     -58.06243      2.07471        -55.98772  -0.14811   656   %  0.6177
     657     -58.06265      2.07494        -55.98771  -0.14810   657   %  0.6177
     658     -58.21391      2.07526        -56.13864  -0.29903   658   %  0.6177
     659     -58.06319      2.07549        -55.98770  -0.14809   659   %  0.6178
     660     -58.21435      2.07572        -56.13863  -0.29902   660   %  0.6178
     661     -58.06364      2.07595        -55.98769  -0.14808   661   %  0.6178
     662     -58.06386      2.07618        -55.98768  -0.14808   662   %  0.6178
     663     -58.21511      2.07650        -56.13861  -0.29900   663   %  0.6179
     664     -58.06440      2.07673        -55.98767  -0.14806   664   %  0.6179
     665     -58.21556      2.07696        -56.13860  -0.29899   665   %  0.6179
     666     -58.06485      2.07719        -55.98766  -0.14805   666   %  0.6179
     667     -58.21600      2.07741        -56.13859  -0.29898   667   %  0.6179
     668     -58.06529      2.07764        -55.98765  -0.14804   668   %  0.6180
     669     -58.06552      2.07787        -55.98765  -0.14804   669   %  0.6180
     670     -58.21676      2.07820        -56.13857  -0.29896   670   %  0.6180
     671     -58.06606      2.07842        -55.98763  -0.14803   671   %  0.6180
     672     -58.21721      2.07865        -56.13856  -0.29895   672   %  0.6181
     673     -58.06650      2.07888        -55.98762  -0.14802   673   %  0.6181
     674     -58.21765      2.07911        -56.13854  -0.29894   674   %  0.6181
     675     -58.06695      2.07934        -55.98761  -0.14801   675   %  0.6181
     676     -58.06717      2.07957        -55.98761  -0.14800   676   %  0.6182
     677     -58.21841      2.07989        -56.13852  -0.29892   677   %  0.6182
     678     -58.06771      2.08012        -55.98760  -0.14799   678   %  0.6182
     679     -58.21886      2.08035        -56.13851  -0.29891   679   %  0.6182
     680     -58.06816      2.08057        -55.98759  -0.14798   680   %  0.6183
     681     -58.21930      2.08080        -56.13850  -0.29889   681   %  0.6183
     682     -58.06861      2.08103        -55.98758  -0.14797   682   %  0.6183
     683     -58.06883      2.08126        -55.98757  -0.14796   683   %  0.6183
     684     -58.22007      2.08159        -56.13848  -0.29887   684   %  0.6184
     685     -58.06937      2.08181        -55.98756  -0.14795   685   %  0.6184
     686     -58.22051      2.08204        -56.13847  -0.29886   686   %  0.6184
     687     -58.06982      2.08227        -55.98755  -0.14794   687   %  0.6184
     688     -58.22096      2.08250        -56.13846  -0.29885   688   %  0.6184
[...]
    5019     -72.72620     24.42323        -48.30297   7.53664  5019   %  4.9571
    5020     -72.72694     24.42381        -48.30313   7.53648  5020   %  4.9589
    5021     -72.72788     24.42464        -48.30324   7.53637  5021   %  4.9614
    5022     -72.72934     24.42581        -48.30353   7.53607  5022   %  4.9650
    5023     -72.73153     24.42745        -48.30408   7.53552  5023   %  4.9700
    5024     -72.73386     24.42985        -48.30401   7.53560  5024   %  4.9770
    5025     -72.69891     24.44083        -48.25808   7.58153  5025   %  4.9888
    5026     -72.64511     24.64745        -47.99765   7.84195  5026   %  4.9876
    5027     -72.68533     24.69312        -47.99221   7.84739  5027   %  4.9879
    5028     -72.69314     24.70952        -47.98362   7.85598  5028   %  4.9881
    5029     -72.69967     24.71540        -47.98427   7.85534  5029   %  4.9882
    5030     -72.70491     24.72261        -47.98230   7.85731  5030   %  4.9884
    5031     -72.71090     24.72855        -47.98235   7.85725  5031   %  4.9885
    5032     -72.71770     24.73543        -47.98227   7.85734  5032   %  4.9887
    5033     -72.72484     24.74273        -47.98211   7.85749  5033   %  4.9890
    5034     -72.73204     24.74953        -47.98251   7.85710  5034   %  4.9893
    5035     -72.73611     24.75473        -47.98138   7.85823  5035   %  4.9898
    5036     -72.73879     24.75748        -47.98131   7.85830  5036   %  4.9904
    5037     -72.74009     24.75859        -47.98150   7.85810  5037   %  4.9911
    5038     -72.74030     24.75895        -47.98134   7.85826  5038   %  4.9919
    5039     -72.74077     24.75931        -47.98146   7.85815  5039   %  4.9931
    5040     -72.74143     24.75982        -47.98161   7.85800  5040   %  4.9947
    5041     -72.74236     24.76054        -47.98182   7.85779  5041   %  4.9969
    5042     -72.74367     24.76156        -47.98212   7.85749  5042   %  5.0001
    5043     -72.74553     24.76298        -47.98254   7.85706  5043   %  5.0046
    5044     -72.74816     24.76500        -47.98316   7.85644  5044   %  5.0110
    5045     -72.75781     24.76804        -47.98976   7.84984  5045   %  5.0197
    5046     -72.71977     24.78262        -47.93715   7.90245  5046   %  5.0257
    5047     -72.75946     24.85002        -47.90944   7.93017  5047   %  5.0255
    5048     -72.76026     24.85082        -47.90944   7.93017  5048   %  5.0258
    5049     -72.76085     24.85140        -47.90945   7.93015  5049   %  5.0262
    5050     -72.76125     24.85175        -47.90950   7.93010  5050   %  5.0267
    5051     -72.76120     24.85200        -47.90919   7.93041  5051   %  5.0274
    5052     -72.76157     24.85232        -47.90925   7.93036  5052   %  5.0284
    5053     -72.76216     24.85276        -47.90940   7.93021  5053   %  5.0299
    5054     -72.76300     24.85339        -47.90961   7.93000  5054   %  5.0319
    5055     -72.76418     24.85428        -47.90990   7.92971  5055   %  5.0347
    5056     -72.76585     24.85553        -47.91032   7.92929  5056   %  5.0388
    5057     -72.76844     24.85731        -47.91114   7.92847  5057   %  5.0444
    5058     -72.76309     24.86121        -47.90188   7.93772  5058   %  5.0526
    5059     -72.68881     24.92218        -47.76662   8.07298  5059   %  5.0570
    5060     -72.75895     25.03423        -47.72472   8.11489  5060   %  5.0566
    5061     -72.76262     25.03807        -47.72454   8.11506  5061   %  5.0566
    5062     -72.76655     25.04219        -47.72436   8.11524  5062   %  5.0567
    5063     -72.77027     25.04609        -47.72418   8.11542  5063   %  5.0569
    5064     -72.77211     25.04915        -47.72296   8.11665  5064   %  5.0572
    5065     -72.77350     25.05078        -47.72272   8.11689  5065   %  5.0575
    5066     -72.77425     25.05155        -47.72270   8.11690  5066   %  5.0580
    5067     -72.77426     25.05187        -47.72240   8.11721  5067   %  5.0587
    5068     -72.77469     25.05217        -47.72252   8.11709  5068   %  5.0598
    5069     -72.77529     25.05260        -47.72269   8.11692  5069   %  5.0612
    5070     -72.77612     25.05321        -47.72292   8.11669  5070   %  5.0632
    5071     -72.77729     25.05406        -47.72323   8.11638  5071   %  5.0660
    5072     -72.77897     25.05527        -47.72370   8.11591  5072   %  5.0700
    5073     -72.78128     25.05705        -47.72423   8.11537  5073   %  5.0756
    5074     -72.75973     25.06445        -47.69528   8.14433  5074   %  5.0838
    5075     -72.71908     25.18400        -47.53508   8.30453  5075   %  5.0863
    5076     -72.75497     25.22656        -47.52841   8.31120  5076   %  5.0861
    5077     -72.76304     25.23752        -47.52552   8.31409  5077   %  5.0861
    5078     -72.76901     25.24372        -47.52529   8.31432  5078   %  5.0861
    5079     -72.77558     25.25017        -47.52541   8.31420  5079   %  5.0862
    5080     -72.78099     25.25601        -47.52498   8.31463  5080   %  5.0863
    5081     -72.78383     25.26029        -47.52354   8.31606  5081   %  5.0866
    5082     -72.78543     25.26216        -47.52327   8.31633  5082   %  5.0869
    5083     -72.78625     25.26300        -47.52324   8.31636  5083   %  5.0874
    5084     -72.78627     25.26332        -47.52295   8.31666  5084   %  5.0881
    5085     -72.78668     25.26362        -47.52307   8.31654  5085   %  5.0891
    5086     -72.78726     25.26403        -47.52323   8.31637  5086   %  5.0905
    5087     -72.78808     25.26461        -47.52347   8.31614  5087   %  5.0925
    5088     -72.78925     25.26544        -47.52382   8.31579  5088   %  5.0953
    5089     -72.79089     25.26661        -47.52428   8.31533  5089   %  5.0992
    5090     -72.78861     25.26834        -47.52027   8.31934  5090   %  5.1048
    5091     -72.78132     25.27224        -47.50908   8.33053  5091   %  5.1086
    5092     -72.78363     25.29454        -47.48909   8.35052  5092   %  5.1102
    5093     -72.79048     25.30555        -47.48493   8.35468  5093   %  5.1106
    5094     -72.79119     25.30627        -47.48493   8.35468  5094   %  5.1110
    5095     -72.79123     25.30664        -47.48459   8.35502  5095   %  5.1115
    5096     -72.79156     25.30688        -47.48469   8.35492  5096   %  5.1122
    5097     -72.79198     25.30717        -47.48481   8.35480  5097   %  5.1132
    5098     -72.79257     25.30759        -47.48498   8.35463  5098   %  5.1147
    5099     -72.79340     25.30818        -47.48522   8.35439  5099   %  5.1167
    5100     -72.79482     25.30901        -47.48581   8.35380  5100   %  5.1195


          FINAL GEOMETRY OBTAINED                                 CHARGE
 PM7 CHARGE=1 EPS=8.2 IRC=-1 LARGE=100 LET CYCLES=10000
 ortho (in 1,1,2,2-tetrachloroethane (TeCA)) (irc)

   C    0.000000  0    0.000000  0    0.000000  0   0  0  0   -0.4016    5100AA*
   C    1.531023  1    0.000000  0    0.000000  0   1  0  0    0.5459    5100AB*
   C    1.496245  1  111.950839  1    0.000000  0   1  2  0    0.6678    5100AC*
   C    1.489250  1  111.212433  1  127.589311  1   1  2  3    0.0333    5100AD*
   O    1.198209  1  120.243667  1  234.352084  1   2  1  3   -0.4058    5100AE*
   C    1.408414  1  122.692114  1  130.421143  1   3  1  2   -0.3918    5100AF*
   C    1.350344  1  122.113669  1  229.346324  1   4  1  2   -0.2688    5100AG*
   C    1.371284  1  119.429878  1  357.618278  1   6  3  1    0.1643    5100AH*
   O    1.269045  1  116.926180  1  309.477377  1   3  1  2   -0.5357    5100AI*
   H    1.099088  1  115.563212  1   50.128152  1   4  1  2    0.2000    5100AJ*
   H    1.097932  1  120.889015  1  181.386258  1   7  4  1    0.2089    5100AK*
   H    1.097949  1  118.816489  1  178.578664  1   6  3  1    0.2302    5100AL*
   H    1.102996  1  120.549372  1  180.948803  1   8  6  3    0.2001    5100AM*
  Al    1.810681  1  147.627801  1   33.424980  1   9  3  1    0.4846    5100AN*
  Cl    2.020404  1  119.521823  1  245.311560  1  14  9  3   -0.1635    5100AO*
  Cl    2.030718  1  110.625528  1   96.578345  1  14  9  3   -0.1976    5100AP*
   H    1.157907  1  107.043167  1  242.619386  1   1  2  3    0.3001    5100AQ*
   C    1.509114  1  118.227331  1   54.415770  1   2  1  3   -0.4580    5100AR*
   H    1.164558  1  113.072858  1   34.870375  1  18  2  1    0.2514    5100AS*
   H    1.169638  1  110.173983  1  257.705796  1  18  2  1    0.2594    5100AT*
   H    1.134769  1  109.063990  1  147.486491  1  18  2  1    0.2766    5100AU*


     POINT   POTENTIAL  +  ENERGY LOST   =   TOTAL      ERROR    REF%   MOVEMENT
    5101     -72.79530     25.31018        -47.48512   8.35449  5101   %  5.1235
    5102     -72.79764     25.31183        -47.48581   8.35379  5102   %  5.1292
    5103     -72.79944     25.31451        -47.48494   8.35467  5103   %  5.1371
    5104     -72.44914     25.37003        -47.07911   8.76049  5104   %  5.1538
    5105     -72.78835     26.19096        -46.59740   9.24221  5105   %  5.1488
    5106     -72.78931     26.19177        -46.59754   9.24207  5106   %  5.1488
    5107     -72.78983     26.19278        -46.59705   9.24255  5107   %  5.1489
    5108     -72.79981     26.19393        -46.60588   9.23373  5108   %  5.1490
    5109     -72.79869     26.19434        -46.60435   9.23526  5109   %  5.1490
    5110     -72.79904     26.19474        -46.60431   9.23530  5110   %  5.1491
    5111     -72.79947     26.19523        -46.60424   9.23536  5111   %  5.1492
    5112     -72.79994     26.19579        -46.60416   9.23545  5112   %  5.1493
    5113     -72.80041     26.19636        -46.60405   9.23556  5113   %  5.1495
    5114     -72.80081     26.19688        -46.60392   9.23568  5114   %  5.1497
    5115     -72.80110     26.19728        -46.60382   9.23579  5115   %  5.1500
    5116     -72.80132     26.19755        -46.60377   9.23584  5116   %  5.1504
    5117     -72.80155     26.19776        -46.60380   9.23581  5117   %  5.1510
    5118     -72.80190     26.19801        -46.60389   9.23572  5118   %  5.1518
    5119     -72.80289     26.19836        -46.60453   9.23507  5119   %  5.1530
    5120     -72.80359     26.19886        -46.60473   9.23488  5120   %  5.1546
    5121     -72.80500     26.19956        -46.60544   9.23417  5121   %  5.1570
    5122     -72.80639     26.20054        -46.60585   9.23376  5122   %  5.1604
    5123     -72.80839     26.20195        -46.60644   9.23317  5123   %  5.1653
    5124     -72.80785     26.20511        -46.60274   9.23687  5124   %  5.1723
    5125     -72.61491     26.27827        -46.33664   9.50296  5125   %  5.1789
    5126     -72.77952     26.51206        -46.26746   9.57215  5126   %  5.1778
    5127     -72.78478     26.51823        -46.26656   9.57305  5127   %  5.1778
    5128     -72.79134     26.52520        -46.26613   9.57347  5128   %  5.1778
    5129     -72.79616     26.53236        -46.26381   9.57580  5129   %  5.1779
    5130     -72.80011     26.53645        -46.26365   9.57595  5130   %  5.1781
    5131     -72.80672     26.54021        -46.26651   9.57310  5131   %  5.1782
    5132     -72.80680     26.54182        -46.26498   9.57463  5132   %  5.1784
    5133     -72.80771     26.54293        -46.26478   9.57483  5133   %  5.1786
    5134     -72.80839     26.54381        -46.26458   9.57502  5134   %  5.1788
    5135     -72.81689     26.54435        -46.27254   9.56707  5135   %  5.1792
    5136     -72.81700     26.54445        -46.27254   9.56706  5136   %  5.1794
    5137     -72.81713     26.54456        -46.27256   9.56704  5137   %  5.1797
    5138     -72.81729     26.54469        -46.27260   9.56700  5138   %  5.1800
    5139     -72.81751     26.54484        -46.27267   9.56693  5139   %  5.1806
    5140     -72.81782     26.54505        -46.27278   9.56683  5140   %  5.1813
    5141     -72.81826     26.54534        -46.27293   9.56668  5141   %  5.1824
    5142     -72.81888     26.54574        -46.27314   9.56647  5142   %  5.1838
    5143     -72.82056     26.54632        -46.27424   9.56536  5143   %  5.1859
    5144     -72.82180     26.54711        -46.27470   9.56491  5144   %  5.1888
    5145     -72.82352     26.54821        -46.27530   9.56430  5145   %  5.1928
    5146     -72.82565     26.54984        -46.27581   9.56380  5146   %  5.1984
    5147     -72.79725     26.55771        -46.23954   9.60007  5147   %  5.2071
    5148     -72.74043     26.70956        -46.03088   9.80873  5148   %  5.2081
    5149     -72.78079     26.75538        -46.02542   9.81419  5149   %  5.2081
    5150     -72.79391     26.77002        -46.02389   9.81572  5150   %  5.2082
    5151     -72.80916     26.78165        -46.02751   9.81210  5151   %  5.2083
    5152     -72.81489     26.78739        -46.02750   9.81210  5152   %  5.2084
    5153     -72.81988     26.79339        -46.02649   9.81311  5153   %  5.2086
    5154     -72.82532     26.79885        -46.02648   9.81313  5154   %  5.2088
    5155     -72.82904     26.80292        -46.02612   9.81349  5155   %  5.2091
    5156     -72.83122     26.80512        -46.02610   9.81351  5156   %  5.2095
    5157     -72.83218     26.80586        -46.02632   9.81329  5157   %  5.2101
    5158     -72.83222     26.80610        -46.02612   9.81349  5158   %  5.2108
    5159     -72.83267     26.80638        -46.02629   9.81332  5159   %  5.2119
    5160     -72.83334     26.80678        -46.02656   9.81305  5160   %  5.2133
    5161     -72.83424     26.80734        -46.02691   9.81270  5161   %  5.2154
    5162     -72.83589     26.80814        -46.02776   9.81185  5162   %  5.2183
    5163     -72.83738     26.80932        -46.02807   9.81154  5163   %  5.2224
    5164     -72.82502     26.81327        -46.01175   9.82786  5164   %  5.2287
    5165     -72.79825     26.86488        -45.93337   9.90624  5165   %  5.2299
    5166     -72.83078     26.90088        -45.92990   9.90971  5166   %  5.2303
    5167     -72.83732     26.90782        -45.92950   9.91011  5167   %  5.2306
    5168     -72.84050     26.91170        -45.92880   9.91081  5168   %  5.2311
    5169     -72.84223     26.91301        -45.92922   9.91039  5169   %  5.2316
    5170     -72.84240     26.91330        -45.92910   9.91051  5170   %  5.2323
    5171     -72.84292     26.91356        -45.92935   9.91025  5171   %  5.2333
    5172     -72.84369     26.91393        -45.92975   9.90985  5172   %  5.2347
    5173     -72.83576     26.91445        -45.92131   9.91830  5173   %  5.2366
    5174     -72.83610     26.91471        -45.92139   9.91822  5174   %  5.2376
    5175     -72.83829     26.91508        -45.92321   9.91639  5175   %  5.2391
    5176     -72.83881     26.91546        -45.92335   9.91625  5176   %  5.2405
    5177     -72.83022     26.91600        -45.91422   9.92538  5177   %  5.2426
    5178     -72.83054     26.91625        -45.91429   9.92532  5178   %  5.2435
    5179     -72.83125     26.91660        -45.91465   9.92496  5179   %  5.2448
    5180     -72.82659     26.91709        -45.90950   9.93011  5180   %  5.2467
    5181     -72.82701     26.91739        -45.90962   9.92999  5181   %  5.2478
    5182     -72.82761     26.91782        -45.90979   9.92982  5182   %  5.2494
    5183     -72.82157     26.91842        -45.90315   9.93645  5183   %  5.2517
    5184     -72.82206     26.91876        -45.90330   9.93630  5184   %  5.2529
    5185     -72.82268     26.91924        -45.90344   9.93617  5185   %  5.2547
    5186     -72.82404     26.91995        -45.90409   9.93551  5186   %  5.2572
    5187     -72.82291     26.92150        -45.90141   9.93820  5187   %  5.2605
    5188     -72.81479     26.93296        -45.88183   9.95777  5188   %  5.2647
    5189     -72.82805     26.97884        -45.84920   9.99040  5189   %  5.2643
    5190     -72.82411     26.98164        -45.84247   9.99713  5190   %  5.2647
    5191     -72.82533     26.98226        -45.84308   9.99653  5191   %  5.2649
    5192     -72.82593     26.98283        -45.84309   9.99651  5192   %  5.2651
    5193     -72.82640     26.98328        -45.84312   9.99649  5193   %  5.2654
    5194     -72.82674     26.98357        -45.84317   9.99644  5194   %  5.2658
    5195     -72.82700     26.98376        -45.84324   9.99636  5195   %  5.2664
    5196     -72.82728     26.98395        -45.84334   9.99627  5196   %  5.2671
    5197     -72.82767     26.98422        -45.84345   9.99616  5197   %  5.2682
    5198     -72.82821     26.98459        -45.84361   9.99599  5198   %  5.2696
    5199     -72.82896     26.98512        -45.84384   9.99577  5199   %  5.2717
    5200     -72.83005     26.98588        -45.84417   9.99544  5200   %  5.2746


          FINAL GEOMETRY OBTAINED                                 CHARGE
 PM7 CHARGE=1 EPS=8.2 IRC=-1 LARGE=100 LET CYCLES=10000
 ortho (in 1,1,2,2-tetrachloroethane (TeCA)) (irc)

   C    0.000000  0    0.000000  0    0.000000  0   0  0  0   -0.4016    5200AA*
   C    1.530789  1    0.000000  0    0.000000  0   1  0  0    0.5462    5200AB*
   C    1.496134  1  112.197705  1    0.000000  0   1  2  0    0.6683    5200AC*
   C    1.489333  1  111.239491  1  127.765646  1   1  2  3    0.0332    5200AD*
   O    1.198287  1  120.236599  1  233.626372  1   2  1  3   -0.4063    5200AE*
   C    1.408554  1  122.688773  1  131.237279  1   3  1  2   -0.3919    5200AF*
   C    1.350354  1  122.124517  1  228.558686  1   4  1  2   -0.2688    5200AG*
   C    1.371185  1  119.438709  1  357.268404  1   6  3  1    0.1641    5200AH*
   O    1.268872  1  116.984202  1  310.161962  1   3  1  2   -0.5356    5200AI*
   H    1.099130  1  115.562419  1   49.408449  1   4  1  2    0.2004    5200AJ*
   H    1.097824  1  120.904817  1  181.427798  1   7  4  1    0.2083    5200AK*
   H    1.097957  1  118.804007  1  178.263739  1   6  3  1    0.2303    5200AL*
   H    1.102969  1  120.558607  1  180.903181  1   8  6  3    0.2001    5200AM*
  Al    1.810387  1  147.801664  1   32.960148  1   9  3  1    0.4847    5200AN*
  Cl    2.020479  1  119.318194  1  245.284712  1  14  9  3   -0.1640    5200AO*
  Cl    2.030693  1  110.717735  1   96.583501  1  14  9  3   -0.1974    5200AP*
   H    1.158420  1  106.934834  1  242.683443  1   1  2  3    0.3007    5200AQ*
   C    1.509234  1  118.292717  1   53.824343  1   2  1  3   -0.4575    5200AR*
   H    1.164584  1  113.042514  1   35.111733  1  18  2  1    0.2512    5200AS*
   H    1.169727  1  110.144943  1  257.988365  1  18  2  1    0.2593    5200AT*
   H    1.134676  1  109.081392  1  147.756624  1  18  2  1    0.2763    5200AU*


     POINT   POTENTIAL  +  ENERGY LOST   =   TOTAL      ERROR    REF%   MOVEMENT
    5201     -72.83148     26.98697        -45.84452   9.99509  5201   %  5.2788
    5202     -72.83341     26.98901        -45.84440   9.99520  5202   %  5.2849
    5203     -72.56959     27.04204        -45.52754  10.31206  5203   %  5.2918
    5204     -72.83785     27.60973        -45.22811  10.61149  5204   %  5.2936
    5205     -72.83788     27.60978        -45.22810  10.61150  5205   %  5.2936
    5206     -72.83792     27.60984        -45.22807  10.61153  5206   %  5.2937
    5207     -72.83795     27.60992        -45.22804  10.61157  5207   %  5.2938
    5208     -72.83800     27.61000        -45.22799  10.61161  5208   %  5.2939
    5209     -72.83805     27.61009        -45.22796  10.61165  5209   %  5.2941
    5210     -72.83812     27.61019        -45.22793  10.61168  5210   %  5.2944


           POTENTIAL ENERGY HAS STOPPED DROPPING


 **********************
 *                    *
 * JOB ENDED NORMALLY *
 *                    *
 **********************



 TOTAL JOB TIME:           225.78 SECONDS

 == MOPAC DONE ==
