 *******************************************************************************
 ** Site#: 9602  E-mail support:    MrMOPAC@ATT.net    Version 18.050W 64BITS **
 *******************************************************************************
 ** Cite this program as: MOPAC2016, Version: 18.050W, James J. P. Stewart,   **
 ** Stewart Computational Chemistry, web: HTTP://OpenMOPAC.net. Days left: 177**
 *******************************************************************************
 **                                                                           **
 **                                MOPAC2016                                  **
 **                                                                           **
 *******************************************************************************

                              PM7 CALCULATION RESULTS


 *******************************************************************************
 *  CALCULATION DONE:                                Mon Feb 19 16:44:13 2018  *
 *
 *
 *
 *                 CHARGE ON SYSTEM =    +1
 *
 *
 *
 *  EPS= 78.40 - USE ANDREAS KLAMT'S COSMO IMPLICIT SOLVATION MODEL
 *  TS         - USE EF ROUTINE FOR TS SEARCH
 *  T=         - A TIME OF 172800.0 SECONDS REQUESTED
 *  DUMP=N     - RESTART FILE WRITTEN EVERY  7200.000 SECONDS
 *  HTML       - WRITE HTML SCRIPT TO READ PDB FILE USING JSMOL
 *******************************************************************************
  TS eps=78.4 html charge=1
 Refine transition state, starting at Point 1024

   ATOM                 CHEMICAL                   X               Y               Z
  NUMBER                 SYMBOL               (ANGSTROMS)     (ANGSTROMS)     (ANGSTROMS)
 
     1       C(HETATM    1  C1  HET A   1)   -1.70551901  *   0.82550388  *   0.04801311  *
     2       C(HETATM    2  C2  HET A   1)   -0.24127383  *   0.67998062  *   0.05138508  *
     3       C(HETATM    3  C3  HET A   1)    0.70753358  *   1.66976497  *   0.07315588  *
     4       O(HETATM    4  O   HET A   1)    0.24511878  *  -0.54295979  *  -0.01140628  *
     5       O(HETATM    5  O   HOH B   2)    2.74057445  *  -0.06307383  *  -0.28961924  *
     6       H(HETATM    6 1H1  HET A   1)   -2.04549427  *   1.86197818  *   0.21338234  *
     7       H(HETATM    7 2H1  HET A   1)   -2.16201354  *   0.49028686  *  -0.90324317  *
     8       H(HETATM    8 3H1  HET A   1)   -2.17849776  *   0.20933297  *   0.83784661  *
     9       H(HETATM    9 1H3  HET A   1)    1.98605738  *   1.09885752  *  -0.37740950  *
    10       H(HETATM   10 2H3  HET A   1)    1.71598258  *   1.61372955  *   0.59522421  *
    11       H(HETATM   11 1H   HOH B   2)    1.99550864  *  -0.71616646  *  -0.17164121  *
    12       H(HETATM   12 2H   HOH B   2)    0.44794857  *   2.70962417  *  -0.08182934  *
    13       H(HETATM   13 3H   HOH B   2)    3.12324485  *  -0.29221475  *  -1.16590926  *
    14       H(HETATM   14  H   HET A   1)   -0.34964742  *  -1.39580399  *   0.24415819  *
    15       O(HETATM   15  O   HOH J   3)   -0.85649628  *  -2.68791780  *   0.67172559  *
    16       H(HETATM   16 1H   HOH J   3)   -0.04378324  *  -3.22139247  *   0.81505974  *
    17       H(HETATM   17 2H   HOH J   3)   -1.25563379  *  -3.09846097  *  -0.12511028  *
 

 General Reference for PM7:
 "Optimization of Parameters for Semiempirical Methods VI: More Modifications to the 
 NDDO Approximations and Re-optimization of Parameters", J. J. P. Stewart, J. Mol. Mod., 1:32, 19 (2013)
 http://www.springerlink.com/openurl.asp?genre=article&id=doi:10.1007/s00894-012-1667-x

           Empirical Formula: C3 H11 O3  =    17 atoms



      MOLECULAR POINT GROUP   :   C1  


      RHF CALCULATION, NO. OF DOUBLY OCCUPIED LEVELS = 20


          Transition state refinement using EF

          HESSIAN CALCULATED NUMERICALLY

 CYCLE:     1 TIME:   0.547 TIME LEFT:  2.00D  GRAD.:    12.504 HEAT: -60.35141
 CYCLE:     2 TIME:   0.016 TIME LEFT:  2.00D  GRAD.:     6.771 HEAT: -60.44014
 CYCLE:     3 TIME:   0.000 TIME LEFT:  2.00D  GRAD.:     4.909 HEAT: -60.56937
 CYCLE:     4 TIME:   0.016 TIME LEFT:  2.00D  GRAD.:     4.300 HEAT: -60.91719
 CYCLE:     5 TIME:   0.016 TIME LEFT:  2.00D  GRAD.:     4.042 HEAT: -61.31499
 CYCLE:     6 TIME:   0.016 TIME LEFT:  2.00D  GRAD.:     6.953 HEAT: -62.11922
 CYCLE:     7 TIME:   0.000 TIME LEFT:  2.00D  GRAD.:    13.701 HEAT: -62.62065
 CYCLE:     8 TIME:   0.016 TIME LEFT:  2.00D  GRAD.:    17.117 HEAT: -63.18421
 CYCLE:     9 TIME:   0.016 TIME LEFT:  2.00D  GRAD.:    21.567 HEAT: -63.49971
 CYCLE:    10 TIME:   0.016 TIME LEFT:  2.00D  GRAD.:    24.253 HEAT: -63.65511
 CYCLE:    11 TIME:   0.016 TIME LEFT:  2.00D  GRAD.:    24.397 HEAT: -63.81471
 CYCLE:    12 TIME:   0.016 TIME LEFT:  2.00D  GRAD.:    16.309 HEAT: -63.90609
 CYCLE:    13 TIME:   0.016 TIME LEFT:  2.00D  GRAD.:    11.907 HEAT: -64.02433
 CYCLE:    14 TIME:   0.016 TIME LEFT:  2.00D  GRAD.:     8.729 HEAT: -64.07118
 CYCLE:    15 TIME:   0.047 TIME LEFT:  2.00D  GRAD.:     2.070 HEAT: -64.10180
 CYCLE:    16 TIME:   0.031 TIME LEFT:  2.00D  GRAD.:     1.205 HEAT: -64.10657
 CYCLE:    17 TIME:   0.000 TIME LEFT:  2.00D  GRAD.:     1.141 HEAT: -64.11800
 CYCLE:    18 TIME:   0.047 TIME LEFT:  2.00D  GRAD.:     0.923 HEAT: -64.11641

     GRADIENT =  0.92298  IS LESS THAN CUTOFF =  1.00000



 -------------------------------------------------------------------------------
 TS eps=78.4 html charge=1
 Refine transition state, starting at Point 1024



     GEOMETRY OPTIMISED USING EIGENVECTOR FOLLOWING (TS).     
     SCF FIELD WAS ACHIEVED                                   


                              PM7 CALCULATION
                                                       MOPAC2016 (Version: 18.050W)
                                                       Mon Feb 19 16:44:14 2018
                                                       No. of days remaining = 177




          FINAL HEAT OF FORMATION =        -64.11641 KCAL/MOL =    -268.26307 KJ/MOL
          VAN DER WAALS AREA      =        148.37 SQUARE ANGSTROMS


          TOTAL ENERGY            =      -1398.89100 EV
          ELECTRONIC ENERGY       =      -1514.20015 EV  POINT GROUP:     C1  
          CORE-CORE REPULSION     =        115.30914 EV
          DIELECTRIC ENERGY       =         -2.89609 EV
          COSMO AREA              =        148.37 SQUARE ANGSTROMS
          COSMO VOLUME            =        132.48 CUBIC ANGSTROMS

          GRADIENT NORM           =          0.92298
          IONIZATION POTENTIAL    =         10.508764 EV
          HOMO LUMO ENERGIES (EV) =        -10.509 -0.050
          NO. OF FILLED LEVELS    =         20
          MOLECULAR WEIGHT        =         95.1181

          MOLECULAR DIMENSIONS (Angstroms)

            Atom       Atom       Distance
            H    16    H    12     6.14676
            H    13    H     6     5.34611
            H     7    H    10     2.96329


          SCF CALCULATIONS        =         79
 
          WALL-CLOCK TIME         =          0.859 SECONDS
          COMPUTATION TIME        =          3.338 SECONDS




   ATOM                 CHEMICAL                   X               Y               Z
  NUMBER                 SYMBOL               (ANGSTROMS)     (ANGSTROMS)     (ANGSTROMS)
 
     1       C(HETATM    1  C1  HET A   1)   -1.57445246  *   0.58171579  *  -0.10067511  *
     2       C(HETATM    2  C2  HET A   1)   -0.13657667  *   0.59885120  *   0.22020857  *
     3       C(HETATM    3  C3  HET A   1)    0.70660635  *   1.66412464  *   0.14660567  *
     4       O(HETATM    4  O   HET A   1)    0.42431667  *  -0.55711712  *   0.57602226  *
     5       O(HETATM    5  O   HOH B   2)    2.76993614  *   0.13467841  *  -0.57718791  *
     6       H(HETATM    6 1H1  HET A   1)   -2.04221003  *   1.57985737  *  -0.03955308  *
     7       H(HETATM    7 2H1  HET A   1)   -1.75602739  *   0.21702583  *  -1.13145863  *
     8       H(HETATM    8 3H1  HET A   1)   -2.15514196  *  -0.08333971  *   0.56597215  *
     9       H(HETATM    9 1H3  HET A   1)    2.08290615  *   1.12813232  *  -0.33273146  *
    10       H(HETATM   10 2H3  HET A   1)    1.70194264  *   1.73324233  *   0.65791328  *
    11       H(HETATM   11 1H   HOH B   2)    2.12634642  *  -0.60945840  *  -0.37535461  *
    12       H(HETATM   12 2H   HOH B   2)    0.38732772  *   2.62904177  *  -0.21664928  *
    13       H(HETATM   13 3H   HOH B   2)    2.87555969  *   0.09671219  *  -1.57046487  *
    14       H(HETATM   14  H   HET A   1)   -0.22373178  *  -1.38954235  *   0.58812396  *
    15       O(HETATM   15  O   HOH J   3)   -1.18545903  *  -2.57496458  *   0.60460645  *
    16       H(HETATM   16 1H   HOH J   3)   -0.61989021  *  -3.34882874  *   0.79984766  *
    17       H(HETATM   17 2H   HOH J   3)   -1.47437105  *  -2.73347234  *  -0.31546975  *

                             CARTESIAN COORDINATES

   1    C       -1.574452461     0.581715789    -0.100675111
   2    C       -0.136576674     0.598851198     0.220208566
   3    C        0.706606353     1.664124640     0.146605668
   4    O        0.424316671    -0.557117122     0.576022261
   5    O        2.769936140     0.134678411    -0.577187908
   6    H       -2.042210033     1.579857372    -0.039553077
   7    H       -1.756027387     0.217025826    -1.131458634
   8    H       -2.155141964    -0.083339708     0.565972155
   9    H        2.082906147     1.128132322    -0.332731461
  10    H        1.701942645     1.733242326     0.657913280
  11    H        2.126346421    -0.609458402    -0.375354610
  12    H        0.387327717     2.629041770    -0.216649284
  13    H        2.875559691     0.096712188    -1.570464875
  14    H       -0.223731780    -1.389542345     0.588123963
  15    O       -1.185459033    -2.574964578     0.604606445
  16    H       -0.619890212    -3.348828740     0.799847660
  17    H       -1.474371054    -2.733472342    -0.315469748


           Empirical Formula: C3 H11 O3  =    17 atoms



      MOLECULAR POINT GROUP   :   C1  


                  EIGENVALUES  
 -31.69844 -30.83449 -29.68386 -27.72394 -25.24166 -20.77887 -18.92092 -18.50554
 -17.96272 -17.48316 -16.09607 -15.87549 -15.42529 -15.02933 -14.35659 -13.65001
 -13.58239 -13.26547 -12.55010 -10.50876  -0.04960   1.69783   1.95745   3.16344
   3.65456   4.08755   4.41279   4.96184   5.07404   5.15756   5.21058   5.68230
   6.08921   6.14833   6.34728


              NET ATOMIC CHARGES AND DIPOLE CONTRIBUTIONS

  ATOM NO.                 TYPE                        CHARGE      No. of ELECS.   s-Pop       p-Pop       
    1          C(HETATM    1  C1  HET A   1)          -0.542677        4.5427     1.05948     3.48319
    2          C(HETATM    2  C2  HET A   1)           0.538396        3.4616     1.10209     2.35951
    3          C(HETATM    3  C3  HET A   1)          -0.679900        4.6799     1.05836     3.62154
    4          O(HETATM    4  O   HET A   1)          -0.614901        6.6149     1.83684     4.77806
    5          O(HETATM    5  O   HOH B   2)          -0.564515        6.5645     1.80761     4.75691
    6          H(HETATM    6 1H1  HET A   1)           0.203067        0.7969     0.79693
    7          H(HETATM    7 2H1  HET A   1)           0.210800        0.7892     0.78920
    8          H(HETATM    8 3H1  HET A   1)           0.202993        0.7970     0.79701
    9          H(HETATM    9 1H3  HET A   1)           0.456995        0.5430     0.54300
   10          H(HETATM   10 2H3  HET A   1)           0.234521        0.7655     0.76548
   11          H(HETATM   11 1H   HOH B   2)           0.415708        0.5843     0.58429
   12          H(HETATM   12 2H   HOH B   2)           0.211298        0.7887     0.78870
   13          H(HETATM   13 3H   HOH B   2)           0.424149        0.5759     0.57585
   14          H(HETATM   14  H   HET A   1)           0.425578        0.5744     0.57442
   15          O(HETATM   15  O   HOH J   3)          -0.709936        6.7099     1.81407     4.89587
   16          H(HETATM   16 1H   HOH J   3)           0.394706        0.6053     0.60529
   17          H(HETATM   17 2H   HOH J   3)           0.393718        0.6063     0.60628

          NET CHARGE ON RESIDUES

      Residue         Charge  Anion or
                              Cation?
      HET A   1       +0.646  CATION
      HOH B   2       +0.275
 


 DIPOLE           X         Y         Z       TOTAL
 POINT-CHG.     2.356    -1.207    -5.092     5.740
 HYBRID         0.078    -0.812    -0.164     0.832
 SUM            2.434    -2.020    -5.256     6.134


          ATOMIC ORBITAL ELECTRON POPULATIONS

                   Atom                  s        px        py        pz   
   C(HETATM    1  C1  HET A   1)   1.05948   1.03506   1.23308   1.21505
   C(HETATM    2  C2  HET A   1)   1.10209   0.90248   0.78694   0.67009
   C(HETATM    3  C3  HET A   1)   1.05836   1.08872   1.13798   1.39483
   O(HETATM    4  O   HET A   1)   1.83684   1.60491   1.36116   1.81200
   O(HETATM    5  O   HOH B   2)   1.80761   1.68307   1.57317   1.50067
   H(HETATM    6 1H1  HET A   1)   0.79693
   H(HETATM    7 2H1  HET A   1)   0.78920
   H(HETATM    8 3H1  HET A   1)   0.79701
   H(HETATM    9 1H3  HET A   1)   0.54300
   H(HETATM   10 2H3  HET A   1)   0.76548
   H(HETATM   11 1H   HOH B   2)   0.58429
   H(HETATM   12 2H   HOH B   2)   0.78870
   H(HETATM   13 3H   HOH B   2)   0.57585
   H(HETATM   14  H   HET A   1)   0.57442
   O(HETATM   15  O   HOH J   3)   1.81407   1.75876   1.60926   1.52784
   H(HETATM   16 1H   HOH J   3)   0.60529
   H(HETATM   17 2H   HOH J   3)   0.60628
 *******************************************************************************
 ** Site#: 9602  E-mail support:    MrMOPAC@ATT.net    Version 18.050W 64BITS **
 *******************************************************************************
 ** Cite this program as: MOPAC2016, Version: 18.050W, James J. P. Stewart,   **
 ** Stewart Computational Chemistry, web: HTTP://OpenMOPAC.net. Days left: 177**
 *******************************************************************************
 **                                                                           **
 **                                MOPAC2016                                  **
 **                                                                           **
 *******************************************************************************

                              PM7 CALCULATION RESULTS


 *******************************************************************************
 *  CALCULATION DONE:                                Mon Feb 19 16:44:14 2018  *
 *
 *
 *
 *                 CHARGE ON SYSTEM =    +1
 *
 *
 *
 *  EPS= 78.40 - USE ANDREAS KLAMT'S COSMO IMPLICIT SOLVATION MODEL
 *  IRC=N      - INTRINSIC REACTION COORDINATE  1 DEFINED
 *  OLDGEO     - PREVIOUS GEOMETRY TO BE USED
 *  T=         - A TIME OF 172800.0 SECONDS REQUESTED
 *  DUMP=N     - RESTART FILE WRITTEN EVERY  7200.000 SECONDS
 *  HTML       - WRITE HTML SCRIPT TO GENERATE ANIMATION USING JSMOL
 *             - TO DISPLAY IN PDB FORMAT, ADD "PDBOUT"
 *******************************************************************************
oldgeo eps=78.4 html charge=1 irc=1*
 Map out IRC for acetone Enol-Keto reaction

   ATOM                 CHEMICAL                   X               Y               Z
  NUMBER                 SYMBOL               (ANGSTROMS)     (ANGSTROMS)     (ANGSTROMS)
 
     1       C(HETATM    1  C1  HET A   1)   -1.57445246  *   0.58171579  *  -0.10067511  *
     2       C(HETATM    2  C2  HET A   1)   -0.13657667  *   0.59885120  *   0.22020857  *
     3       C(HETATM    3  C3  HET A   1)    0.70660635  *   1.66412464  *   0.14660567  *
     4       O(HETATM    4  O   HET A   1)    0.42431667  *  -0.55711712  *   0.57602226  *
     5       O(HETATM    5  O   HOH B   2)    2.76993614  *   0.13467841  *  -0.57718791  *
     6       H(HETATM    6 1H1  HET A   1)   -2.04221003  *   1.57985737  *  -0.03955308  *
     7       H(HETATM    7 2H1  HET A   1)   -1.75602739  *   0.21702583  *  -1.13145863  *
     8       H(HETATM    8 3H1  HET A   1)   -2.15514196  *  -0.08333971  *   0.56597215  *
     9       H(HETATM    9 1H3  HET A   1)    2.08290615  *   1.12813232  *  -0.33273146  *
    10       H(HETATM   10 2H3  HET A   1)    1.70194264  *   1.73324233  *   0.65791328  *
    11       H(HETATM   11 1H   HOH B   2)    2.12634642  *  -0.60945840  *  -0.37535461  *
    12       H(HETATM   12 2H   HOH B   2)    0.38732772  *   2.62904177  *  -0.21664928  *
    13       H(HETATM   13 3H   HOH B   2)    2.87555969  *   0.09671219  *  -1.57046487  *
    14       H(HETATM   14  H   HET A   1)   -0.22373178  *  -1.38954235  *   0.58812396  *
    15       O(HETATM   15  O   HOH J   3)   -1.18545903  *  -2.57496458  *   0.60460645  *
    16       H(HETATM   16 1H   HOH J   3)   -0.61989021  *  -3.34882874  *   0.79984766  *
    17       H(HETATM   17 2H   HOH J   3)   -1.47437105  *  -2.73347234  *  -0.31546975  *
 

 General Reference for PM7:
 "Optimization of Parameters for Semiempirical Methods VI: More Modifications to the 
 NDDO Approximations and Re-optimization of Parameters", J. J. P. Stewart, J. Mol. Mod., 1:32, 19 (2013)
 http://www.springerlink.com/openurl.asp?genre=article&id=doi:10.1007/s00894-012-1667-x

           Empirical Formula: C3 H11 O3  =    17 atoms



      MOLECULAR POINT GROUP   :   C1  


      RHF CALCULATION, NO. OF DOUBLY OCCUPIED LEVELS = 20



          HEAT OF FORMATION =     -64.116412 KCALS/MOLE


          GRADIENT NORM =   1.00652


          TIME FOR SCF CALCULATION =    0.02

          TIME FOR DERIVATIVES     =    0.02

          MOLECULAR WEIGHT =   95.12


          ESTIMATED TIME TO COMPLETE CALCULATION =        3.19 SECONDS

    FOR POINT-GROUP C1   THERE ARE   1 UNIQUE SYMMETRY FUNCTIONS.

 STEP:   1 TIME =     0.02 SECS, INTEGRAL =      0.02 TIME LEFT: 172799.95
 STEP:   2 TIME =     0.03 SECS, INTEGRAL =      0.05 TIME LEFT: 172799.92
 STEP:   3 TIME =     0.02 SECS, INTEGRAL =      0.06 TIME LEFT: 172799.91
 STEP:   4 TIME =     0.02 SECS, INTEGRAL =      0.08 TIME LEFT: 172799.89
 STEP:   5 TIME =     0.03 SECS, INTEGRAL =      0.11 TIME LEFT: 172799.86
 STEP:   6 TIME =     0.02 SECS, INTEGRAL =      0.12 TIME LEFT: 172799.84
 STEP:   7 TIME =     0.02 SECS, INTEGRAL =      0.14 TIME LEFT: 172799.83
 STEP:   8 TIME =     0.02 SECS, INTEGRAL =      0.16 TIME LEFT: 172799.81
 STEP:   9 TIME =     0.03 SECS, INTEGRAL =      0.19 TIME LEFT: 172799.78
 STEP:  10 TIME =     0.02 SECS, INTEGRAL =      0.20 TIME LEFT: 172799.77
 STEP:  11 TIME =     0.02 SECS, INTEGRAL =      0.22 TIME LEFT: 172799.75
 STEP:  12 TIME =     0.02 SECS, INTEGRAL =      0.23 TIME LEFT: 172799.73
 STEP:  13 TIME =     0.02 SECS, INTEGRAL =      0.25 TIME LEFT: 172799.72
 STEP:  14 TIME =     0.03 SECS, INTEGRAL =      0.28 TIME LEFT: 172799.69
 STEP:  15 TIME =     0.02 SECS, INTEGRAL =      0.30 TIME LEFT: 172799.67
 STEP:  16 TIME =     0.02 SECS, INTEGRAL =      0.31 TIME LEFT: 172799.66
 STEP:  17 TIME =     0.02 SECS, INTEGRAL =      0.33 TIME LEFT: 172799.64
 STEP:  18 TIME =     0.02 SECS, INTEGRAL =      0.34 TIME LEFT: 172799.62
 STEP:  19 TIME =     0.03 SECS, INTEGRAL =      0.38 TIME LEFT: 172799.59
 STEP:  20 TIME =     0.02 SECS, INTEGRAL =      0.39 TIME LEFT: 172799.58
 STEP:  21 TIME =     0.02 SECS, INTEGRAL =      0.41 TIME LEFT: 172799.56
 STEP:  22 TIME =     0.02 SECS, INTEGRAL =      0.42 TIME LEFT: 172799.55
 STEP:  23 TIME =     0.02 SECS, INTEGRAL =      0.44 TIME LEFT: 172799.53
 STEP:  24 TIME =     0.02 SECS, INTEGRAL =      0.45 TIME LEFT: 172799.52
 STEP:  25 TIME =     0.03 SECS, INTEGRAL =      0.48 TIME LEFT: 172799.48
 STEP:  26 TIME =     0.02 SECS, INTEGRAL =      0.50 TIME LEFT: 172799.47
 STEP:  27 TIME =     0.02 SECS, INTEGRAL =      0.52 TIME LEFT: 172799.45
 STEP:  28 TIME =     0.02 SECS, INTEGRAL =      0.53 TIME LEFT: 172799.44
 STEP:  29 TIME =     0.02 SECS, INTEGRAL =      0.55 TIME LEFT: 172799.42
 STEP:  30 TIME =     0.02 SECS, INTEGRAL =      0.56 TIME LEFT: 172799.41
 STEP:  31 TIME =     0.03 SECS, INTEGRAL =      0.59 TIME LEFT: 172799.38
 STEP:  32 TIME =     0.02 SECS, INTEGRAL =      0.61 TIME LEFT: 172799.36
 STEP:  33 TIME =     0.02 SECS, INTEGRAL =      0.62 TIME LEFT: 172799.34
 STEP:  34 TIME =     0.02 SECS, INTEGRAL =      0.64 TIME LEFT: 172799.33
 STEP:  35 TIME =     0.02 SECS, INTEGRAL =      0.66 TIME LEFT: 172799.31
 STEP:  36 TIME =     0.03 SECS, INTEGRAL =      0.69 TIME LEFT: 172799.28
 STEP:  37 TIME =     0.01 SECS, INTEGRAL =      0.70 TIME LEFT: 172799.27
 STEP:  38 TIME =     0.04 SECS, INTEGRAL =      0.73 TIME LEFT: 172799.23
 STEP:  39 TIME =     0.02 SECS, INTEGRAL =      0.75 TIME LEFT: 172799.22
 STEP:  40 TIME =     0.02 SECS, INTEGRAL =      0.77 TIME LEFT: 172799.20
 STEP:  41 TIME =     0.02 SECS, INTEGRAL =      0.79 TIME LEFT: 172799.18
 STEP:  42 TIME =     0.02 SECS, INTEGRAL =      0.80 TIME LEFT: 172799.17
 STEP:  43 TIME =     0.01 SECS, INTEGRAL =      0.81 TIME LEFT: 172799.16
 STEP:  44 TIME =     0.03 SECS, INTEGRAL =      0.84 TIME LEFT: 172799.12
 STEP:  45 TIME =     0.02 SECS, INTEGRAL =      0.86 TIME LEFT: 172799.11
 STEP:  46 TIME =     0.02 SECS, INTEGRAL =      0.88 TIME LEFT: 172799.09
 STEP:  47 TIME =     0.01 SECS, INTEGRAL =      0.89 TIME LEFT: 172799.08
 STEP:  48 TIME =     0.02 SECS, INTEGRAL =      0.91 TIME LEFT: 172799.06
 STEP:  49 TIME =     0.03 SECS, INTEGRAL =      0.94 TIME LEFT: 172799.03
 STEP:  50 TIME =     0.02 SECS, INTEGRAL =      0.96 TIME LEFT: 172799.01
 STEP:  51 TIME =     0.01 SECS, INTEGRAL =      0.97 TIME LEFT: 172799.00
           INITIAL VELOCITY IN DRC (Angstroms/Femtosecond)
        -0.00385        -0.00163        -0.00481
         0.00243         0.02167         0.00009
        -0.03471         0.00765         0.03729
         0.01084        -0.00235        -0.00190
         0.00742        -0.00741         0.00152
        -0.00513        -0.00545        -0.00238
         0.00084        -0.00730        -0.00096
         0.01090        -0.00223        -0.00016
         0.32336        -0.19365        -0.23443
        -0.04182         0.00783        -0.15196
        -0.09096         0.01141         0.04189
        -0.01381         0.00486         0.01730
        -0.04889         0.02190        -0.02387
         0.01502         0.03096        -0.00333
        -0.00137        -0.00433        -0.00018
         0.01945         0.01852        -0.02708
        -0.00641         0.00687         0.00577


     POINT   POTENTIAL  +  ENERGY LOST   =   TOTAL      ERROR    REF%   MOVEMENT
       1     -64.11641      0.00000        -64.11641   0.00000     1   %  0.0000
       2     -64.12266      0.00000        -64.12266  -0.00625     2   %  0.0722
       3     -64.16233      0.00000        -64.16233  -0.03967     3   %  0.1295
       4     -64.23588      0.10364        -64.13224  -0.00958     4   %  0.1456
       5     -64.26871      0.13535        -64.13336  -0.01070     5   %  0.1595
       6     -64.31196      0.17778        -64.13418  -0.01152     6   %  0.1789
       7     -64.31328      0.24029        -64.07299   0.04967     7   %  0.2048
       8     -64.35645      0.28887        -64.06758   0.05507     8   %  0.2184
       9     -64.37445      0.33518        -64.03927   0.08339     9   %  0.2353
      10     -64.43290      0.38128        -64.05162   0.07104    10   %  0.2523
      11     -64.59078      0.42694        -64.16384  -0.04118    11   %  0.2704
      12     -64.63174      0.47350        -64.15824  -0.03558    12   %  0.2886
      13     -64.67628      0.51896        -64.15732  -0.03466    13   %  0.3075
      14     -64.70179      0.58544        -64.11636   0.00630    14   %  0.3344
      15     -64.58396      0.63455        -63.94941   0.17325    15   %  0.3530
      16     -64.64494      0.68071        -63.96423   0.15843    16   %  0.3721
      17     -64.72111      0.72818        -63.99294   0.12972    17   %  0.3914
      18     -64.76616      0.77456        -63.99160   0.13106    18   %  0.4111
      19     -64.82557      0.83369        -63.99188   0.13078    19   %  0.4357
      20     -64.96086      0.90947        -64.05140   0.07126    20   %  0.4658
      21     -65.01688      0.95960        -64.05727   0.06538    21   %  0.4846
      22     -65.06384      1.00972        -64.05412   0.06854    22   %  0.5040
      23     -65.10028      1.05949        -64.04080   0.08186    23   %  0.5235
      24     -65.15279      1.10925        -64.04354   0.07912    24   %  0.5434
      25     -65.19402      1.15844        -64.03558   0.08707    25   %  0.5637
      26     -65.26382      1.20735        -64.05647   0.06618    26   %  0.5839
      27     -65.34852      1.25577        -64.09275   0.02991    27   %  0.6044
      28     -65.41241      1.30377        -64.10864   0.01401    28   %  0.6252
      29     -65.45336      1.35219        -64.10117   0.02149    29   %  0.6459
      30     -65.51749      1.40073        -64.11676   0.00590    30   %  0.6669
      31     -65.55647      1.44923        -64.10723   0.01542    31   %  0.6878
      32     -65.55463      1.49764        -64.05698   0.06567    32   %  0.7089
      33     -65.59795      1.54606        -64.05189   0.07077    33   %  0.7296
      34     -65.63780      1.59314        -64.04467   0.07799    34   %  0.7505
      35     -65.66702      1.64154        -64.02548   0.09718    35   %  0.7715
      36     -65.71813      1.68878        -64.02935   0.09331    36   %  0.7924
      37     -65.81506      1.73686        -64.07820   0.04446    37   %  0.8135
      38     -65.93052      1.78453        -64.14600  -0.02334    38   %  0.8339
      39     -65.99474      1.83206        -64.16268  -0.04003    39   %  0.8545
      40     -66.04891      1.88003        -64.16888  -0.04622    40   %  0.8756
      41     -66.01380      1.92735        -64.08645   0.03621    41   %  0.8965
      42     -66.07569      1.97378        -64.10192   0.02074    42   %  0.9172
      43     -66.11842      2.02120        -64.09722   0.02544    43   %  0.9379
      44     -66.15895      2.06769        -64.09126   0.03140    44   %  0.9587
      45     -66.33097      2.11391        -64.21706  -0.09440    45   %  0.9795
      46     -66.37828      2.16072        -64.21756  -0.09490    46   %  1.0001
      47     -66.46057      2.22770        -64.23287  -0.11021    47   %  1.0290
      48     -66.54518      2.27780        -64.26738  -0.14472    48   %  1.0472
      49     -66.59642      2.32825        -64.26818  -0.14552    49   %  1.0666
      50     -66.65321      2.41054        -64.24266  -0.12000    50   %  1.0946
      51     -66.68084      2.46750        -64.21333  -0.09068    51   %  1.1082
      52     -66.72274      2.52204        -64.20070  -0.07804    52   %  1.1272
      53     -66.74955      2.57351        -64.17604  -0.05339    53   %  1.1449
      54     -66.79968      2.62346        -64.17622  -0.05356    54   %  1.1638
      55     -66.84497      2.70506        -64.13991  -0.01725    55   %  1.1911
      56     -66.88075      2.76344        -64.11730   0.00536    56   %  1.2033
      57     -66.91858      2.82087        -64.09770   0.02496    57   %  1.2223
      58     -66.95788      2.87270        -64.08519   0.03747    58   %  1.2382
      59     -66.97765      2.92449        -64.05316   0.06950    59   %  1.2562
      60     -67.62041      2.97383        -64.64658  -0.52392    60   %  1.2726
      61     -67.43764      3.02634        -64.41130  -0.28864    61   %  1.2895
      62     -67.61247      3.07876        -64.53371  -0.41105    62   %  1.3058
      63     -67.51517      3.12705        -64.38813  -0.26547    63   %  1.3234
      64     -67.69647      3.17812        -64.51835  -0.39569    64   %  1.3396
      65     -67.56835      3.22765        -64.34070  -0.21804    65   %  1.3569
      66     -67.74783      3.28025        -64.46758  -0.34492    66   %  1.3724
      67     -67.63115      3.33023        -64.30092  -0.17826    67   %  1.3888
      68     -67.79035      3.38295        -64.40740  -0.28474    68   %  1.4038
      69     -67.81943      3.43332        -64.38611  -0.26345    69   %  1.4205
      70     -67.84173      3.48344        -64.35829  -0.23563    70   %  1.4366
      71     -67.84803      3.53317        -64.31485  -0.19220    71   %  1.4522
      72     -67.88302      3.58239        -64.30063  -0.17797    72   %  1.4677
      73     -67.90160      3.63247        -64.26912  -0.14646    73   %  1.4829
      74     -67.93265      3.68264        -64.25001  -0.12735    74   %  1.4983
      75     -67.94994      3.73411        -64.21582  -0.09317    75   %  1.5130
      76     -67.98516      3.78441        -64.20074  -0.07809    76   %  1.5276
      77     -68.02410      3.83628        -64.18782  -0.06516    77   %  1.5420
      78     -68.10410      3.88594        -64.21816  -0.09550    78   %  1.5564
      79     -68.11830      3.93742        -64.18088  -0.05823    79   %  1.5707
      80     -68.13574      3.98704        -64.14870  -0.02604    80   %  1.5846
      81     -68.16268      4.03841        -64.12427  -0.00162    81   %  1.5984
      82     -68.12685      4.08900        -64.03785   0.08481    82   %  1.6121
      83     -68.15996      4.14086        -64.01910   0.10356    83   %  1.6253
      84     -68.17597      4.19200        -63.98397   0.13869    84   %  1.6387
      85     -68.10100      4.24371        -63.85730   0.26536    85   %  1.6514
      86     -68.12350      4.29557        -63.82792   0.29473    86   %  1.6645
      87     -68.14427      4.34734        -63.79693   0.32572    87   %  1.6765
      88     -68.16503      4.39867        -63.76636   0.35630    88   %  1.6896
      89     -68.17204      4.45072        -63.72132   0.40134    89   %  1.7014
      90     -68.19295      4.50264        -63.69030   0.43235    90   %  1.7143
      91     -68.20816      4.55559        -63.65257   0.47009    91   %  1.7257
      92     -68.20522      4.60748        -63.59773   0.52493    92   %  1.7383
      93     -68.21126      4.66026        -63.55100   0.57166    93   %  1.7495
      94     -68.24354      4.71137        -63.53218   0.59048    94   %  1.7619
      95     -68.32237      4.76418        -63.55819   0.56447    95   %  1.7731
      96     -68.33785      4.81484        -63.52301   0.59965    96   %  1.7856
      97     -68.34846      4.86714        -63.48132   0.64134    97   %  1.7969
      98     -68.36549      4.91864        -63.44685   0.67581    98   %  1.8092
      99     -68.37413      4.97250        -63.40163   0.72103    99   %  1.8199
     100     -68.39909      5.02425        -63.37484   0.74782   100   %  1.8318
     101     -68.40331      5.07828        -63.32503   0.79763   101   %  1.8424
     102     -68.42245      5.13030        -63.29215   0.83051   102   %  1.8541
     103     -68.42876      5.18434        -63.24442   0.87824   103   %  1.8643
     104     -68.44832      5.23630        -63.21202   0.91064   104   %  1.8759
     105     -68.45414      5.29082        -63.16332   0.95934   105   %  1.8859
     106     -68.46620      5.34319        -63.12301   0.99965   106   %  1.8974
     107     -68.47312      5.39682        -63.07630   1.04636   107   %  1.9070
     108     -68.49527      5.44890        -63.04637   1.07628   108   %  1.9187
     109     -68.49940      5.50192        -62.99749   1.12517   109   %  1.9280
     110     -68.51250      5.55371        -62.95879   1.16387   110   %  1.9398
     111     -68.52230      5.60773        -62.91457   1.20809   111   %  1.9490
     112     -68.53774      5.65917        -62.87857   1.24409   112   %  1.9604
     113     -68.55477      5.71329        -62.84148   1.28118   113   %  1.9695
     114     -68.56634      5.76518        -62.80116   1.32150   114   %  1.9808
     115     -68.58240      5.81830        -62.76410   1.35855   115   %  1.9895
     116     -68.62495      5.86994        -62.75501   1.36765   116   %  2.0011
     117     -68.61544      5.92404        -62.69140   1.43126   117   %  2.0097
     118     -68.65912      5.97590        -62.68322   1.43944   118   %  2.0212
     119     -68.59472      6.03117        -62.56354   1.55911   119   %  2.0298
     120     -68.65465      6.08328        -62.57136   1.55130   120   %  2.0410
     121     -68.58881      6.13811        -62.45070   1.67196   121   %  2.0492
     122     -68.66575      6.18921        -62.47654   1.64612   122   %  2.0604
     123     -68.69069      6.24390        -62.44679   1.67587   123   %  2.0687
     124     -68.72441      6.29505        -62.42936   1.69329   124   %  2.0797
     125     -68.71914      6.34898        -62.37016   1.75250   125   %  2.0879
     126     -68.75383      6.40084        -62.35300   1.76966   126   %  2.0988
     127     -68.72625      6.45594        -62.27031   1.85235   127   %  2.1068
     128     -68.76572      6.50876        -62.25696   1.86570   128   %  2.1175
     129     -68.75316      6.56414        -62.18902   1.93364   129   %  2.1253
     130     -68.67072      6.61649        -62.05423   2.06843   130   %  2.1358
     131     -68.80981      6.67289        -62.13692   1.98574   131   %  2.1437
     132     -68.71334      6.72559        -61.98775   2.13491   132   %  2.1543
     133     -68.70388      6.78275        -61.92113   2.20152   133   %  2.1618
     134     -68.74913      6.83462        -61.91451   2.20815   134   %  2.1722
     135     -68.72488      6.89084        -61.83403   2.28863   135   %  2.1802
     136     -68.75208      6.94396        -61.80812   2.31454   136   %  2.1904
     137     -68.75303      6.99963        -61.75340   2.36926   137   %  2.1978
     138     -68.77779      7.05262        -61.72517   2.39749   138   %  2.2082
     139     -68.77998      7.10720        -61.67278   2.44988   139   %  2.2152
     140     -68.80539      7.15945        -61.64594   2.47672   140   %  2.2258
     141     -68.80444      7.21511        -61.58933   2.53332   141   %  2.2327
     142     -68.83476      7.26869        -61.56608   2.55658   142   %  2.2433
     143     -68.83552      7.32467        -61.51085   2.61181   143   %  2.2498
     144     -68.86427      7.37809        -61.48618   2.63648   144   %  2.2604
     145     -68.86245      7.43281        -61.42964   2.69302   145   %  2.2665
     146     -68.88870      7.48595        -61.40275   2.71991   146   %  2.2774
     147     -68.89415      7.54075        -61.35340   2.76926   147   %  2.2833
     148     -68.89070      7.59416        -61.29654   2.82612   148   %  2.2942
     149     -68.90904      7.64856        -61.26047   2.86218   149   %  2.2998
     150     -68.91857      7.70144        -61.21712   2.90553   150   %  2.3109
     151     -68.93576      7.75554        -61.18022   2.94244   151   %  2.3163
     152     -68.95184      7.80871        -61.14313   2.97953   152   %  2.3276
     153     -68.96641      7.86437        -61.10204   3.02062   153   %  2.3328
     154     -68.99553      7.91735        -61.07818   3.04448   154   %  2.3439
     155     -68.98083      7.97287        -61.00796   3.11470   155   %  2.3493
     156     -69.01066      8.02657        -60.98410   3.13856   156   %  2.3603
     157     -69.01371      8.08141        -60.93230   3.19036   157   %  2.3655
     158     -69.04171      8.13421        -60.90750   3.21516   158   %  2.3765
     159     -69.04509      8.18806        -60.85704   3.26562   159   %  2.3816
     160     -69.07179      8.24075        -60.83104   3.29162   160   %  2.3927
     161     -69.07500      8.29600        -60.77900   3.34365   161   %  2.3977
     162     -69.06261      8.34847        -60.71414   3.40852   162   %  2.4085
     163     -69.10320      8.40293        -60.70027   3.42239   163   %  2.4136
     164     -69.09055      8.45668        -60.63387   3.48879   164   %  2.4246
     165     -69.12736      8.51195        -60.61541   3.50725   165   %  2.4293
     166     -69.11638      8.56625        -60.55013   3.57252   166   %  2.4404
     167     -69.27245      8.62151        -60.65094   3.47172   167   %  2.4448
     168     -69.13346      8.67546        -60.45799   3.66466   168   %  2.4554
     169     -69.30740      8.73287        -60.57453   3.54813   169   %  2.4601
     170     -69.16105      8.78925        -60.37180   3.75086   170   %  2.4704
     171     -69.28278      8.84604        -60.43674   3.68592   171   %  2.4748
     172     -69.18895      8.90055        -60.28840   3.83426   172   %  2.4851
     173     -69.31240      8.95667        -60.35573   3.76693   173   %  2.4897
     174     -69.33056      9.01255        -60.31801   3.80465   174   %  2.5002
     175     -69.32985      9.06839        -60.26146   3.86120   175   %  2.5049
     176     -69.35907      9.12037        -60.23870   3.88396   176   %  2.5156
     177     -69.36072      9.17439        -60.18632   3.93633   177   %  2.5202
     178     -69.39279      9.22602        -60.16677   3.95589   178   %  2.5309
     179     -69.38018      9.28001        -60.10017   4.02249   179   %  2.5355
     180     -69.40936      9.33301        -60.07635   4.04631   180   %  2.5464
     181     -69.41168      9.38700        -60.02467   4.09798   181   %  2.5507
     182     -69.44034      9.43922        -60.00112   4.12154   182   %  2.5616
     183     -69.31058      9.49315        -59.81742   4.30524   183   %  2.5659
     184     -69.33591      9.54519        -59.79072   4.33194   184   %  2.5770
     185     -69.34077      9.59908        -59.74168   4.38097   185   %  2.5818
     186     -69.36862      9.65136        -59.71727   4.40539   186   %  2.5927
     187     -69.39805      9.70579        -59.69226   4.43040   187   %  2.5974
     188     -69.39915      9.75861        -59.64054   4.48211   188   %  2.6084
     189     -69.41119      9.81315        -59.59804   4.52462   189   %  2.6131
     190     -69.44123      9.86510        -59.57613   4.54653   190   %  2.6238
     191     -69.43561      9.91951        -59.51610   4.60655   191   %  2.6289
     192     -69.47840      9.97227        -59.50613   4.61652   192   %  2.6396
     193     -69.48240     10.02624        -59.45616   4.66650   193   %  2.6446
     194     -69.50871     10.07784        -59.43087   4.69179   194   %  2.6551
     195     -69.51289     10.13150        -59.38139   4.74127   195   %  2.6603
     196     -69.54374     10.18397        -59.35977   4.76289   196   %  2.6708
     197     -69.55025     10.23836        -59.31189   4.81077   197   %  2.6759
     198     -69.58222     10.29075        -59.29147   4.83119   198   %  2.6864
     199     -69.58476     10.34414        -59.24061   4.88205   199   %  2.6916
     200     -69.61691     10.39694        -59.21997   4.90269   200   %  2.7023
     201     -69.61998     10.45033        -59.16965   4.95301   201   %  2.7072
     202     -69.51478     10.50322        -59.01156   5.11110   202   %  2.7179
     203     -69.51865     10.55573        -58.96292   5.15974   203   %  2.7225
     204     -69.54720     10.60843        -58.93877   5.18389   204   %  2.7331
     205     -69.54300     10.66188        -58.88112   5.24154   205   %  2.7377
     206     -69.56978     10.71414        -58.85564   5.26702   206   %  2.7480
     207     -69.56308     10.76773        -58.79535   5.32731   207   %  2.7529
     208     -69.62730     10.81950        -58.80780   5.31486   208   %  2.7630
     209     -69.62187     10.87288        -58.74900   5.37366   209   %  2.7680
     210     -69.65200     10.92526        -58.72674   5.39592   210   %  2.7779
     211     -69.70312     10.97826        -58.72487   5.39779   211   %  2.7828
     212     -69.73253     11.03767        -58.69486   5.42780   212   %  2.7939
     213     -69.73247     11.09244        -58.64003   5.48263   213   %  2.7977
     214     -69.72373     11.14593        -58.57779   5.54486   214   %  2.8083
     215     -69.77739     11.19735        -58.58004   5.54262   215   %  2.8126
     216     -69.76583     11.25012        -58.51571   5.60695   216   %  2.8232
     217     -69.81988     11.30113        -58.51875   5.60391   217   %  2.8279
     218     -69.80015     11.35424        -58.44591   5.67675   218   %  2.8381
     219     -69.84658     11.40609        -58.44049   5.68217   219   %  2.8433
     220     -69.88220     11.46009        -58.42211   5.70055   220   %  2.8535
     221     -69.87762     11.51180        -58.36582   5.75684   221   %  2.8591
     222     -69.89902     11.56401        -58.33500   5.78766   222   %  2.8697
     223     -69.90410     11.61655        -58.28755   5.83511   223   %  2.8752
     224     -69.97483     11.66773        -58.30709   5.81557   224   %  2.8854
     225     -69.97696     11.72051        -58.25645   5.86621   225   %  2.8911
     226     -70.01628     11.77193        -58.24434   5.87831   226   %  2.9011
     227     -70.02145     11.82370        -58.19775   5.92491   227   %  2.9068
     228     -70.05265     11.87504        -58.17762   5.94504   228   %  2.9169
     229     -70.05340     11.92685        -58.12655   5.99611   229   %  2.9226
     230     -70.07824     11.97760        -58.10064   6.02202   230   %  2.9325
     231     -70.06916     12.02895        -58.04021   6.08244   231   %  2.9382
     232     -70.11093     12.08085        -58.03008   6.09258   232   %  2.9482
     233     -70.09698     12.13363        -57.96335   6.15930   233   %  2.9539
     234     -70.12701     12.18552        -57.94149   6.18117   234   %  2.9638
     235     -70.13230     12.23715        -57.89515   6.22751   235   %  2.9696
     236     -70.15615     12.28890        -57.86725   6.25541   236   %  2.9796
     237     -70.16164     12.34077        -57.82086   6.30179   237   %  2.9854
     238     -70.19186     12.39244        -57.79942   6.32324   238   %  2.9952
     239     -70.19949     12.44485        -57.75465   6.36801   239   %  3.0011
     240     -70.20663     12.49642        -57.71021   6.41245   240   %  3.0110
     241     -70.21258     12.54777        -57.66481   6.45785   241   %  3.0172
     242     -70.23008     12.59902        -57.63107   6.49159   242   %  3.0271
     243     -70.24916     12.65000        -57.59916   6.52350   243   %  3.0332
     244     -70.26624     12.70102        -57.56523   6.55743   244   %  3.0429
     245     -70.28858     12.75315        -57.53543   6.58723   245   %  3.0490
     246     -70.31902     12.80535        -57.51367   6.60899   246   %  3.0586
     247     -70.32516     12.85765        -57.46751   6.65514   247   %  3.0646
     248     -70.34228     12.90913        -57.43315   6.68951   248   %  3.0743
     249     -70.34990     12.96024        -57.38966   6.73300   249   %  3.0802
     250     -70.38001     13.01061        -57.36940   6.75326   250   %  3.0898
     251     -70.37554     13.06153        -57.31401   6.80865   251   %  3.0958
     252     -70.38953     13.11274        -57.27679   6.84587   252   %  3.1055
     253     -70.37125     13.16352        -57.20773   6.91493   253   %  3.1115
     254     -70.40166     13.21487        -57.18679   6.93587   254   %  3.1213
     255     -70.35903     13.26611        -57.09291   7.02974   255   %  3.1272
     256     -70.38755     13.31651        -57.07104   7.05162   256   %  3.1367
     257     -70.38946     13.36823        -57.02123   7.10143   257   %  3.1429
     258     -70.42411     13.41865        -57.00546   7.11720   258   %  3.1522
     259     -70.42174     13.47028        -56.95146   7.17120   259   %  3.1584
     260     -70.45131     13.52169        -56.92962   7.19304   260   %  3.1679
     261     -70.45993     13.57308        -56.88686   7.23580   261   %  3.1740
     262     -70.48493     13.62345        -56.86149   7.26117   262   %  3.1834
     263     -70.47573     13.67415        -56.80158   7.32108   263   %  3.1896
     264     -70.49724     13.72542        -56.77182   7.35084   264   %  3.1991
     265     -70.49462     13.77721        -56.71741   7.40525   265   %  3.2053
     266     -70.52572     13.82800        -56.69772   7.42494   266   %  3.2147
     267     -69.97440     13.87955        -56.09485   8.02781   267   %  3.2211
     268     -69.98648     13.93070        -56.05578   8.06687   268   %  3.2303
     269     -69.97001     13.98193        -55.98808   8.13458   269   %  3.2383
     270     -70.26279     14.03200        -56.23080   7.89186   270   %  3.2476
     271     -70.26444     14.08197        -56.18247   7.94019   271   %  3.2555
     272     -70.28846     14.13160        -56.15685   7.96580   272   %  3.2657
     273     -70.29496     14.18182        -56.11314   8.00952   273   %  3.2730
     274     -70.31803     14.23087        -56.08716   8.03550   274   %  3.2830
     275     -70.32050     14.28030        -56.04020   8.08246   275   %  3.2902
     276     -70.34741     14.33042        -56.01699   8.10567   276   %  3.3005
     277     -70.34857     14.38041        -55.96815   8.15450   277   %  3.3075
     278     -70.38357     14.43086        -55.95270   8.16996   278   %  3.3177
     279     -70.35540     14.48192        -55.87348   8.24917   279   %  3.3248
     280     -70.38089     14.53231        -55.84858   8.27408   280   %  3.3349
     281     -70.37796     14.58307        -55.79489   8.32777   281   %  3.3420
     282     -70.40451     14.63301        -55.77150   8.35116   282   %  3.3521
     283     -70.39948     14.68411        -55.71537   8.40729   283   %  3.3593
     284     -70.41437     14.73426        -55.68011   8.44255   284   %  3.3693
     285     -70.42784     14.78535        -55.64249   8.48017   285   %  3.3766
     286     -70.45651     14.83546        -55.62106   8.50160   286   %  3.3865
     287     -70.48323     14.88611        -55.59712   8.52554   287   %  3.3938
     288     -70.50956     14.93538        -55.57418   8.54848   288   %  3.4036
     289     -70.45970     14.98599        -55.47371   8.64895   289   %  3.4109
     290     -70.58225     15.03570        -55.54655   8.57611   290   %  3.4205
     291     -70.58435     15.08685        -55.49750   8.62516   291   %  3.4274
     292     -70.59152     15.13690        -55.45461   8.66804   292   %  3.4368
     293     -70.58893     15.18825        -55.40068   8.72197   293   %  3.4438
     294     -70.59384     15.23810        -55.35574   8.76692   294   %  3.4531
     295     -70.58849     15.28920        -55.29930   8.82336   295   %  3.4601
     296     -70.61197     15.33861        -55.27336   8.84930   296   %  3.4694
     297     -70.60763     15.38858        -55.21905   8.90361   297   %  3.4764
     298     -70.68044     15.43752        -55.24291   8.87974   298   %  3.4859
     299     -70.67170     15.48760        -55.18409   8.93857   299   %  3.4930
     300     -70.69696     15.53758        -55.15937   8.96328   300   %  3.5026
     301     -70.69027     15.58874        -55.10153   9.02112   301   %  3.5096
     302     -70.74880     15.63876        -55.11004   9.01262   302   %  3.5191
     303     -70.72210     15.68936        -55.03274   9.08992   303   %  3.5262
     304     -70.74409     15.73969        -55.00441   9.11825   304   %  3.5357
     305     -70.74138     15.79116        -54.95021   9.17244   305   %  3.5427
     306     -70.75856     15.84166        -54.91690   9.20576   306   %  3.5522
     307     -70.75695     15.89179        -54.86517   9.25749   307   %  3.5590
     308     -70.76894     15.94116        -54.82778   9.29488   308   %  3.5686
     309     -70.75565     15.99174        -54.76391   9.35874   309   %  3.5756
     310     -70.77113     16.04132        -54.72981   9.39285   310   %  3.5851
     311     -70.77013     16.09136        -54.67878   9.44388   311   %  3.5921
     312     -70.79030     16.14063        -54.64967   9.47299   312   %  3.6017
     313     -70.79896     16.19101        -54.60796   9.51470   313   %  3.6087
     314     -70.81772     16.24007        -54.57765   9.54501   314   %  3.6181
     315     -70.81687     16.29046        -54.52641   9.59625   315   %  3.6252
     316     -70.83862     16.34010        -54.49852   9.62414   316   %  3.6346
     317     -70.83687     16.39006        -54.44681   9.67585   317   %  3.6416
     318     -70.84600     16.43892        -54.40708   9.71558   318   %  3.6510
     319     -70.84289     16.48847        -54.35442   9.76824   319   %  3.6581
     320     -70.86676     16.53812        -54.32864   9.79402   320   %  3.6676
     321     -70.85903     16.58842        -54.27062   9.85204   321   %  3.6745
     322     -70.88813     16.63888        -54.24925   9.87341   322   %  3.6841
     323     -70.94721     16.68997        -54.25724   9.86541   323   %  3.6910
     324     -70.94645     16.74059        -54.20586   9.91680   324   %  3.7003
     325     -70.93266     16.79081        -54.14185   9.98081   325   %  3.7070
     326     -70.96103     16.84064        -54.12040  10.00226   326   %  3.7165
     327     -70.94937     16.89075        -54.05863  10.06403   327   %  3.7233
     328     -70.97310     16.94114        -54.03197  10.09069   328   %  3.7328
     329     -70.97054     16.99187        -53.97867  10.14399   329   %  3.7396
     330     -70.99429     17.04176        -53.95253  10.17013   330   %  3.7489
     331     -70.99168     17.09139        -53.90029  10.22237   331   %  3.7557
     332     -71.01533     17.14066        -53.87468  10.24798   332   %  3.7651
     333     -71.01241     17.19152        -53.82089  10.30177   333   %  3.7720
     334     -71.03128     17.24178        -53.78950  10.33316   334   %  3.7812
     335     -71.02687     17.29179        -53.73508  10.38758   335   %  3.7880
     336     -71.05103     17.34166        -53.70937  10.41329   336   %  3.7974
     337     -71.04958     17.39136        -53.65821  10.46444   337   %  3.8041
     338     -71.07342     17.44146        -53.63196  10.49070   338   %  3.8135
     339     -71.06736     17.49168        -53.57568  10.54698   339   %  3.8201
     340     -71.09157     17.54145        -53.55012  10.57254   340   %  3.8294
     341     -71.07141     17.59111        -53.48030  10.64236   341   %  3.8361
     342     -71.09535     17.64135        -53.45401  10.66865   342   %  3.8456
     343     -71.09074     17.69217        -53.39857  10.72408   343   %  3.8522
     344     -71.11042     17.74169        -53.36873  10.75393   344   %  3.8614
     345     -71.11180     17.79191        -53.31989  10.80277   345   %  3.8681
     346     -71.13179     17.84095        -53.29084  10.83182   346   %  3.8772
     347     -71.12961     17.89118        -53.23843  10.88423   347   %  3.8840
     348     -71.15334     17.94034        -53.21300  10.90966   348   %  3.8930
     349     -71.19037     17.99051        -53.19986  10.92280   349   %  3.8997
     350     -71.20807     18.03950        -53.16857  10.95409   350   %  3.9086
     351     -70.84092     18.09043        -52.75048  11.37217   351   %  3.9155
     352     -70.87496     18.13956        -52.73540  11.38726   352   %  3.9249
     353     -70.86745     18.19029        -52.67716  11.44550   353   %  3.9322
     354     -70.87338     18.23900        -52.63437  11.48828   354   %  3.9412
     355     -70.86780     18.28971        -52.57810  11.54456   355   %  3.9485
     356     -70.88556     18.33896        -52.54660  11.57606   356   %  3.9575
     357     -70.98430     18.38980        -52.59449  11.52816   357   %  3.9647
     358     -70.99857     18.43855        -52.56002  11.56264   358   %  3.9731
     359     -70.99573     18.48736        -52.50838  11.61428   359   %  3.9809
     360     -70.90848     18.53547        -52.37302  11.74964   360   %  3.9899
     361     -70.91189     18.58434        -52.32754  11.79511   361   %  3.9982
     362     -70.92870     18.63293        -52.29577  11.82689   362   %  4.0077
     363     -70.91795     18.68263        -52.23532  11.88734   363   %  4.0156
     364     -70.93603     18.73199        -52.20404  11.91862   364   %  4.0251
     365     -70.93343     18.78150        -52.15193  11.97073   365   %  4.0328
     366     -70.95219     18.83000        -52.12219  12.00046   366   %  4.0423
     367     -70.97425     18.87889        -52.09537  12.02729   367   %  4.0499
     368     -70.78627     18.92720        -51.85907  12.26359   368   %  4.0597
     369     -70.86868     18.97761        -51.89108  12.23158   369   %  4.0672
     370     -70.88099     19.02633        -51.85466  12.26800   370   %  4.0764
     371     -70.89970     19.07703        -51.82267  12.29999   371   %  4.0841
     372     -70.91557     19.12623        -51.78934  12.33332   372   %  4.0933
     373     -70.91367     19.17738        -51.73629  12.38637   373   %  4.1011
     374     -70.93317     19.22699        -51.70618  12.41648   374   %  4.1102
     375     -70.93036     19.27790        -51.65246  12.47020   375   %  4.1179
     376     -70.94810     19.32734        -51.62076  12.50190   376   %  4.1270
     377     -70.94402     19.37799        -51.56603  12.55662   377   %  4.1345
     378     -70.96236     19.42781        -51.53455  12.58810   378   %  4.1436
     379     -70.96228     19.47866        -51.48361  12.63904   379   %  4.1510
     380     -70.98118     19.52742        -51.45376  12.66890   380   %  4.1600
     381     -70.95334     19.57788        -51.37547  12.74719   381   %  4.1674
     382     -70.93420     19.62645        -51.30775  12.81491   382   %  4.1763
     383     -70.93225     19.67694        -51.25532  12.86734   383   %  4.1835
     384     -70.94605     19.72695        -51.21910  12.90355   384   %  4.1923
     385     -70.92721     19.77839        -51.14883  12.97383   385   %  4.1992
     386     -70.98132     19.82850        -51.15282  12.96984   386   %  4.2077
     387     -70.97638     19.87882        -51.09756  13.02510   387   %  4.2144
     388     -70.99419     19.92908        -51.06511  13.05755   388   %  4.2231


           POTENTIAL ENERGY HAS STOPPED DROPPING

           INITIAL VELOCITY IN DRC (Angstroms/Femtosecond)
         0.00385         0.00163         0.00481
        -0.00243        -0.02167        -0.00009
         0.03471        -0.00765        -0.03729
        -0.01084         0.00235         0.00190
        -0.00742         0.00741        -0.00152
         0.00513         0.00545         0.00238
        -0.00084         0.00730         0.00096
        -0.01090         0.00223         0.00016
        -0.32336         0.19365         0.23443
         0.04182        -0.00783         0.15196
         0.09096        -0.01141        -0.04189
         0.01381        -0.00486        -0.01730
         0.04889        -0.02190         0.02387
        -0.01502        -0.03096         0.00333
         0.00137         0.00433         0.00018
        -0.01945        -0.01852         0.02708
         0.00641        -0.00687        -0.00577


     POINT   POTENTIAL  +  ENERGY LOST   =   TOTAL      ERROR    REF%   MOVEMENT
       1     -64.11641      0.00000        -64.11641   0.00000     1   %  0.0000
       2     -64.15094      0.00000        -64.15094  -0.03453     2   %  0.0734
       3     -64.25773      0.00000        -64.25773  -0.10678     3   %  0.1116
       4     -64.29919      0.08962        -64.20957  -0.05863     4   %  0.1250
       5     -64.34547      0.13480        -64.21067  -0.05973     5   %  0.1403
       6     -64.40802      0.19829        -64.20974  -0.05880     6   %  0.1602
       7     -64.49721      0.28556        -64.21165  -0.06071     7   %  0.1839
       8     -64.67795      0.38678        -64.29117  -0.14023     8   %  0.2071
       9     -64.74657      0.46070        -64.28587  -0.13493     9   %  0.2224
      10     -64.80709      0.53852        -64.26857  -0.11763    10   %  0.2376
      11     -64.89646      0.62172        -64.27474  -0.12380    11   %  0.2527
      12     -64.94516      0.71188        -64.23328  -0.08234    12   %  0.2681
      13     -65.04866      0.80737        -64.24130  -0.09036    13   %  0.2832
      14     -65.15436      0.90777        -64.24659  -0.09565    14   %  0.2983
      15     -65.26344      1.01308        -64.25037  -0.09943    15   %  0.3133
      16     -65.41530      1.12444        -64.29086  -0.13992    16   %  0.3286
      17     -65.53308      1.23992        -64.29316  -0.14222    17   %  0.3438
      18     -65.60733      1.35853        -64.24880  -0.09785    18   %  0.3589
      19     -65.73323      1.48390        -64.24933  -0.09838    19   %  0.3741
      20     -65.91019      1.67328        -64.23691  -0.08597    20   %  0.3964
      21     -66.05554      1.80805        -64.24749  -0.09655    21   %  0.4115
      22     -66.19961      1.94647        -64.25314  -0.10220    22   %  0.4269
      23     -66.34888      2.08870        -64.26018  -0.10923    23   %  0.4421
      24     -66.46781      2.23314        -64.23467  -0.08372    24   %  0.4573
      25     -66.62049      2.38126        -64.23922  -0.08828    25   %  0.4726
      26     -66.77419      2.53333        -64.24086  -0.08992    26   %  0.4880
      27     -66.95275      2.70563        -64.24711  -0.09617    27   %  0.5053
      28     -67.18819      2.86220        -64.32599  -0.17505    28   %  0.5208
      29     -67.30219      3.02082        -64.28137  -0.13042    29   %  0.5363
      30     -67.46344      3.18278        -64.28066  -0.12972    30   %  0.5518
      31     -67.76291      3.41773        -64.34518  -0.19424    31   %  0.5741
      32     -67.93466      3.58268        -64.35199  -0.20105    32   %  0.5897
      33     -68.10933      3.74948        -64.35985  -0.20891    33   %  0.6053
      34     -68.13318      3.91825        -64.21494  -0.06400    34   %  0.6209
      35     -68.31189      4.09015        -64.22174  -0.07079    35   %  0.6365
      36     -68.49378      4.26302        -64.23075  -0.07981    36   %  0.6521
      37     -68.67959      4.43678        -64.24281  -0.09187    37   %  0.6676
      38     -68.85706      4.61343        -64.24363  -0.09269    38   %  0.6831
      39     -69.27467      4.86955        -64.40513  -0.25419    39   %  0.7054
      40     -69.45443      5.04414        -64.41030  -0.25936    40   %  0.7206
      41     -69.63069      5.22445        -64.40624  -0.25530    41   %  0.7361
      42     -69.82057      5.40388        -64.41669  -0.26575    42   %  0.7514
      43     -70.00573      5.58499        -64.42074  -0.26979    43   %  0.7666
      44     -70.20013      5.76734        -64.43279  -0.28185    44   %  0.7818
      45     -70.39240      5.95254        -64.43986  -0.28892    45   %  0.7971
      46     -70.55419      6.13887        -64.41532  -0.26438    46   %  0.8122
      47     -70.62527      6.32936        -64.29591  -0.14497    47   %  0.8275
      48     -70.85229      6.52451        -64.32778  -0.17684    48   %  0.8428
      49     -71.02122      6.71782        -64.30339  -0.15245    49   %  0.8579
      50     -71.22367      6.91594        -64.30774  -0.15679    50   %  0.8731
      51     -71.46189      7.11489        -64.34699  -0.19605    51   %  0.8883
      52     -71.65662      7.31178        -64.34484  -0.19390    52   %  0.9033
      53     -71.80236      7.51312        -64.28924  -0.13830    53   %  0.9184
      54     -72.00842      7.71852        -64.28990  -0.13896    54   %  0.9336
      55     -72.30039      8.01170        -64.28869  -0.13775    55   %  0.9552
      56     -72.63248      8.32934        -64.30314  -0.15220    56   %  0.9784
      57     -72.84153      8.53480        -64.30673  -0.15579    57   %  0.9933
      58     -73.05971      8.74368        -64.31603  -0.16509    58   %  1.0083
      59     -73.26898      8.95119        -64.31779  -0.16685    59   %  1.0232
      60     -73.48936      9.17421        -64.31515  -0.16421    60   %  1.0391
      61     -73.70644      9.38584        -64.32060  -0.16966    61   %  1.0542
      62     -73.92893      9.59774        -64.33119  -0.18025    62   %  1.0692
      63     -74.14409      9.81023        -64.33385  -0.18291    63   %  1.0843
      64     -74.36033     10.02304        -64.33729  -0.18635    64   %  1.0994
      65     -74.58285     10.23337        -64.34948  -0.19854    65   %  1.1143
      66     -74.78444     10.44339        -64.34106  -0.19011    66   %  1.1291
      67     -74.99670     10.65668        -64.34002  -0.18907    67   %  1.1442
      68     -75.29065     10.95092        -64.33973  -0.18879    68   %  1.1650
      69     -75.60683     11.27540        -64.33143  -0.18049    69   %  1.1882
      70     -75.82327     11.48375        -64.33952  -0.18858    70   %  1.2032
      71     -76.03255     11.69026        -64.34230  -0.19135    71   %  1.2181
      72     -76.25968     11.89791        -64.36177  -0.21083    72   %  1.2332
      73     -76.46528     12.10250        -64.36278  -0.21184    73   %  1.2481
      74     -76.74927     12.38758        -64.36169  -0.21075    74   %  1.2692
      75     -77.05197     12.69721        -64.35476  -0.20382    75   %  1.2924
      76     -77.25842     12.89912        -64.35930  -0.20836    76   %  1.3078
      77     -77.46314     13.09895        -64.36419  -0.21325    77   %  1.3232
      78     -77.66288     13.29674        -64.36614  -0.21519    78   %  1.3387
      79     -77.85569     13.49292        -64.36278  -0.21184    79   %  1.3542
      80     -78.05110     13.68464        -64.36646  -0.21551    80   %  1.3697
      81     -78.24100     13.87440        -64.36660  -0.21566    81   %  1.3852
      82     -78.50467     14.13462        -64.37006  -0.21911    82   %  1.4069
      83     -78.69741     14.32455        -64.37286  -0.22192    83   %  1.4231
      84     -78.89068     14.50653        -64.38414  -0.23320    84   %  1.4390
      85     -79.09875     14.68465        -64.41411  -0.26316    85   %  1.4549
      86     -79.26915     14.85995        -64.40920  -0.25825    86   %  1.4709
      87     -79.42989     15.03041        -64.39948  -0.24854    87   %  1.4869
      88     -79.59762     15.19832        -64.39930  -0.24836    88   %  1.5030
      89     -79.82362     15.42508        -64.39854  -0.24760    89   %  1.5253
      90     -80.09370     15.67023        -64.42347  -0.27253    90   %  1.5506
      91     -80.25919     15.82561        -64.43358  -0.28264    91   %  1.5672
      92     -80.40833     15.97532        -64.43300  -0.28206    92   %  1.5837
      93     -80.60384     16.17502        -64.42882  -0.27788    93   %  1.6065
      94     -80.74326     16.31627        -64.42699  -0.27605    94   %  1.6234
      95     -80.87953     16.45594        -64.42358  -0.27264    95   %  1.6407
      96     -81.01681     16.59137        -64.42544  -0.27450    96   %  1.6581
      97     -81.14616     16.72314        -64.42302  -0.27208    97   %  1.6757
      98     -81.29970     16.84929        -64.45042  -0.29947    98   %  1.6933
      99     -81.42352     16.97245        -64.45107  -0.30013    99   %  1.7111
     100     -81.58421     17.13314        -64.45107  -0.30013   100   %  1.7355
     101     -81.74802     17.30617        -64.44184  -0.29090   101   %  1.7636
     102     -81.85441     17.41334        -64.44106  -0.29012   102   %  1.7822
     103     -81.99264     17.55343        -64.43921  -0.28827   103   %  1.8077
     104     -82.12357     17.68273        -64.44085  -0.28990   104   %  1.8328
     105     -82.23326     17.81086        -64.42240  -0.27145   105   %  1.8593
     106     -82.32477     17.90179        -64.42298  -0.27204   106   %  1.8791
     107     -82.44378     18.02002        -64.42375  -0.27281   107   %  1.9061
     108     -82.57788     18.14835        -64.42953  -0.27859   108   %  1.9372
     109     -82.65930     18.22878        -64.43052  -0.27958   109   %  1.9578
     110     -82.76526     18.33443        -64.43084  -0.27989   110   %  1.9856
     111     -82.86858     18.45134        -64.41725  -0.26630   111   %  2.0177
     112     -82.94663     18.52586        -64.42077  -0.26983   112   %  2.0389
     113     -83.02149     18.59878        -64.42271  -0.27177   113   %  2.0598
     114     -83.09623     18.67010        -64.42613  -0.27519   114   %  2.0807
     115     -83.19301     18.74136        -64.45165  -0.30071   115   %  2.1018
     116     -83.26577     18.81146        -64.45431  -0.30337   116   %  2.1229
     117     -83.33687     18.87940        -64.45747  -0.30653   117   %  2.1438
     118     -83.37459     18.94645        -64.42814  -0.27720   118   %  2.1646
     119     -83.44116     19.01279        -64.42837  -0.27743   119   %  2.1858
     120     -83.54974     19.10243        -64.44731  -0.29637   120   %  2.2145
     121     -83.61039     19.16510        -64.44529  -0.29435   121   %  2.2353
     122     -83.67793     19.22775        -64.45018  -0.29924   122   %  2.2561
     123     -83.73796     19.28856        -64.44941  -0.29847   123   %  2.2768
     124     -83.81000     19.37109        -64.43890  -0.28796   124   %  2.3053
     125     -83.87244     19.42904        -64.44341  -0.29247   125   %  2.3261
     126     -83.92444     19.48660        -64.43784  -0.28690   126   %  2.3469
     127     -83.98078     19.54195        -64.43884  -0.28789   127   %  2.3675
     128     -84.06141     19.61723        -64.44418  -0.29324   128   %  2.3959
     129     -84.11103     19.66978        -64.44125  -0.29031   129   %  2.4165
     130     -84.16290     19.72271        -64.44019  -0.28925   130   %  2.4372
     131     -84.19823     19.79174        -64.40649  -0.25555   131   %  2.4655
     132     -84.24950     19.84288        -64.40662  -0.25568   132   %  2.4860
     133     -84.31871     19.91327        -64.40544  -0.25450   133   %  2.5150
     134     -84.38871     19.99598        -64.39273  -0.24178   134   %  2.5415
     135     -84.41297     20.05266        -64.36031  -0.20937   135   %  2.5551
     136     -84.42862     20.11339        -64.31524  -0.16429   136   %  2.5721
     137     -84.44896     20.16335        -64.28561  -0.13467   137   %  2.5880
     138     -84.49409     20.21852        -64.27557  -0.12463   138   %  2.6049
     139     -84.51050     20.26703        -64.24346  -0.09252   139   %  2.6209
     140     -84.55676     20.32082        -64.23594  -0.08500   140   %  2.6370
     141     -84.54687     20.36917        -64.17770  -0.02676   141   %  2.6523
     142     -84.59571     20.42271        -64.17300  -0.02206   142   %  2.6680
     143     -84.64110     20.47143        -64.16967  -0.01873   143   %  2.6829
     144     -84.67808     20.52481        -64.15327  -0.00233   144   %  2.6977
     145     -84.71100     20.57225        -64.13875   0.01219   145   %  2.7119
     146     -84.75922     20.62575        -64.13347   0.01747   146   %  2.7263
     147     -84.86813     20.67327        -64.19486  -0.04392   147   %  2.7397
     148     -84.90878     20.72742        -64.18136  -0.03042   148   %  2.7539
     149     -84.91423     20.77522        -64.13901   0.01193   149   %  2.7673
     150     -84.95559     20.82869        -64.12691   0.02403   150   %  2.7812
     151     -84.96548     20.87677        -64.08870   0.06224   151   %  2.7940
     152     -84.99640     20.92987        -64.06653   0.08441   152   %  2.8086
     153     -84.97558     20.97666        -63.99892   0.15203   153   %  2.8223
     154     -85.01428     21.02812        -63.98616   0.16479   154   %  2.8364
     155     -85.01507     21.07541        -63.93966   0.21128   155   %  2.8494
     156     -85.05280     21.12780        -63.92500   0.22594   156   %  2.8632
     157     -85.06379     21.17482        -63.88897   0.26197   157   %  2.8757
     158     -85.12335     21.22673        -63.89662   0.25432   158   %  2.8893
     159     -85.14102     21.27419        -63.86683   0.28411   159   %  2.9017
     160     -85.17666     21.32624        -63.85042   0.30052   160   %  2.9151
     161     -85.17916     21.37307        -63.80609   0.34485   161   %  2.9271
     162     -85.19602     21.42499        -63.77103   0.37991   162   %  2.9407
     163     -85.19813     21.47230        -63.72583   0.42511   163   %  2.9529
     164     -85.22822     21.52418        -63.70404   0.44690   164   %  2.9665
     165     -85.15803     21.57171        -63.58631   0.56463   165   %  2.9788
     166     -85.19762     21.62444        -63.57317   0.57777   166   %  2.9927
     167     -85.21139     21.67183        -63.53955   0.61139   167   %  3.0049
     168     -85.23981     21.72323        -63.51657   0.63437   168   %  3.0191
     169     -85.25363     21.77073        -63.48291   0.66804   169   %  3.0315
     170     -85.27787     21.82232        -63.45555   0.69539   170   %  3.0459
     171     -85.21687     21.86987        -63.34700   0.80394   171   %  3.0585
     172     -85.24636     21.92110        -63.32527   0.82568   172   %  3.0738
     173     -85.25062     21.96882        -63.28180   0.86914   173   %  3.0870
     174     -85.31351     22.02052        -63.29299   0.85795   174   %  3.1019
     175     -85.32514     22.06862        -63.25652   0.89442   175   %  3.1148
     176     -85.31449     22.12000        -63.19449   0.95645   176   %  3.1293
     177     -85.32243     22.16766        -63.15477   0.99617   177   %  3.1417
     178     -85.33922     22.21838        -63.12084   1.03010   178   %  3.1550
     179     -85.36405     22.26568        -63.09838   1.05257   179   %  3.1665
     180     -85.37130     22.31708        -63.05422   1.09672   180   %  3.1789
     181     -85.37673     22.36632        -63.01042   1.14053   181   %  3.1898
     182     -85.37345     22.42010        -62.95335   1.19759   182   %  3.2013
     183     -85.40126     22.46945        -62.93181   1.21913   183   %  3.2113
     184     -85.41139     22.52236        -62.88903   1.26191   184   %  3.2223
     185     -85.41679     22.57128        -62.84552   1.30542   185   %  3.2319
     186     -85.44086     22.62527        -62.81559   1.33536   186   %  3.2425
     187     -85.46596     22.67568        -62.79028   1.36066   187   %  3.2519
     188     -85.46967     22.72937        -62.74030   1.41065   188   %  3.2621
     189     -85.48784     22.77948        -62.70836   1.44258   189   %  3.2713
     190     -85.49602     22.83415        -62.66188   1.48907   190   %  3.2813
     191     -85.51298     22.88449        -62.62849   1.52245   191   %  3.2903
     192     -85.49952     22.93964        -62.55988   1.59106   192   %  3.3002
     193     -85.51732     22.98994        -62.52739   1.62355   193   %  3.3089
     194     -85.53190     23.04473        -62.48717   1.66377   194   %  3.3186
     195     -85.54953     23.09541        -62.45412   1.69682   195   %  3.3274
     196     -85.56201     23.15110        -62.41090   1.74004   196   %  3.3370
     197     -85.58075     23.20193        -62.37882   1.77212   197   %  3.3455
     198     -85.59267     23.25743        -62.33525   1.81569   198   %  3.3551
     199     -85.61140     23.30907        -62.30233   1.84861   199   %  3.3637
     200     -85.62162     23.36457        -62.25705   1.89389   200   %  3.3730
     201     -85.64150     23.41637        -62.22513   1.92581   201   %  3.3817
     202     -85.63555     23.47231        -62.16324   1.98770   202   %  3.3909
     203     -85.65414     23.52308        -62.13105   2.01989   203   %  3.3994
     204     -85.65716     23.57913        -62.07803   2.07291   204   %  3.4087
     205     -85.67585     23.63009        -62.04576   2.10518   205   %  3.4173
     206     -85.68681     23.68580        -62.00100   2.14994   206   %  3.4266
     207     -85.72888     23.73657        -61.99231   2.15863   207   %  3.4352
     208     -85.72288     23.79213        -61.93074   2.22020   208   %  3.4444
     209     -85.73816     23.84298        -61.89518   2.25576   209   %  3.4528
     210     -85.73493     23.89975        -61.83518   2.31576   210   %  3.4619
     211     -85.76007     23.95208        -61.80798   2.34296   211   %  3.4705
     212     -85.76882     24.00849        -61.76033   2.39061   212   %  3.4795
     213     -85.78925     24.05962        -61.72962   2.42132   213   %  3.4881
     214     -85.82848     24.11579        -61.71269   2.43826   214   %  3.4972
     215     -85.83343     24.16767        -61.66577   2.48517   215   %  3.5057
     216     -85.85720     24.22442        -61.63278   2.51817   216   %  3.5147
     217     -85.89018     24.27506        -61.61512   2.53582   217   %  3.5231
     218     -85.88455     24.33270        -61.55185   2.59909   218   %  3.5322
     219     -85.92410     24.38473        -61.53937   2.61157   219   %  3.5406
     220     -85.93067     24.44205        -61.48862   2.66233   220   %  3.5494
     221     -85.95242     24.49305        -61.45937   2.69157   221   %  3.5578
     222     -85.96056     24.55131        -61.40925   2.74169   222   %  3.5669
     223     -85.98291     24.60352        -61.37939   2.77155   223   %  3.5752
     224     -85.98973     24.66126        -61.32846   2.82248   224   %  3.5842
     225     -86.00256     24.71224        -61.29032   2.86062   225   %  3.5925
     226     -86.01073     24.76939        -61.24135   2.90959   226   %  3.6017
     227     -86.02891     24.82064        -61.20827   2.94267   227   %  3.6103
     228     -86.03811     24.87890        -61.15920   2.99174   228   %  3.6194
     229     -86.06523     24.93066        -61.13457   3.01637   229   %  3.6278
     230     -86.07931     24.98764        -61.09168   3.05926   230   %  3.6365
     231     -86.08917     25.03949        -61.04968   3.10127   231   %  3.6449
     232     -86.09741     25.09803        -60.99937   3.15157   232   %  3.6539
     233     -86.12087     25.15058        -60.97030   3.18064   233   %  3.6624
     234     -86.12680     25.20752        -60.91929   3.23166   234   %  3.6709
     235     -86.14826     25.25873        -60.88953   3.26141   235   %  3.6793
     236     -86.15338     25.31521        -60.83818   3.31277   236   %  3.6880
     237     -86.16576     25.36719        -60.79857   3.35238   237   %  3.6966
     238     -86.17903     25.42430        -60.75473   3.39621   238   %  3.7053
     239     -86.19393     25.47582        -60.71811   3.43283   239   %  3.7138
     240     -86.20008     25.53255        -60.66752   3.48342   240   %  3.7224
     241     -86.22104     25.58350        -60.63754   3.51340   241   %  3.7309
     242     -86.22481     25.64069        -60.58412   3.56683   242   %  3.7395
     243     -86.23564     25.69193        -60.54372   3.60723   243   %  3.7478
     244     -86.24019     25.74877        -60.49142   3.65952   244   %  3.7563
     245     -86.25139     25.80052        -60.45087   3.70007   245   %  3.7646
     246     -86.28760     25.85702        -60.43058   3.72036   246   %  3.7728
     247     -86.27989     25.90866        -60.37123   3.77972   247   %  3.7812
     248     -86.31351     25.96587        -60.34764   3.80330   248   %  3.7894
     249     -86.32998     26.01816        -60.31182   3.83913   249   %  3.7977
     250     -86.33017     26.07380        -60.25637   3.89457   250   %  3.8061
     251     -86.34390     26.12442        -60.21948   3.93146   251   %  3.8145
     252     -86.34922     26.17966        -60.16956   3.98138   252   %  3.8227
     253     -86.37062     26.22997        -60.14064   4.01030   253   %  3.8309
     254     -86.37107     26.28631        -60.08476   4.06618   254   %  3.8387
     255     -86.39296     26.33835        -60.05461   4.09634   255   %  3.8468
     256     -86.39316     26.39421        -59.99895   4.15199   256   %  3.8543
     257     -86.41341     26.44540        -59.96801   4.18293   257   %  3.8623
     258     -86.41346     26.50142        -59.91204   4.23890   258   %  3.8698
     259     -86.40259     26.55255        -59.85005   4.30089   259   %  3.8776
     260     -86.40419     26.60820        -59.79599   4.35495   260   %  3.8847
     261     -86.42294     26.65905        -59.76389   4.38705   261   %  3.8924
     262     -86.42641     26.71489        -59.71152   4.43942   262   %  3.8996
     263     -86.43643     26.76682        -59.66962   4.48132   263   %  3.9072
     264     -86.43857     26.82318        -59.61539   4.53555   264   %  3.9142
     265     -86.45511     26.87486        -59.58025   4.57069   265   %  3.9217
     266     -86.46572     26.93060        -59.53511   4.61583   266   %  3.9287
     267     -86.46688     26.98202        -59.48486   4.66608   267   %  3.9361
     268     -86.48158     27.03799        -59.44360   4.70735   268   %  3.9432
     269     -86.50066     27.08881        -59.41185   4.73909   269   %  3.9507
     270     -86.49904     27.14351        -59.35553   4.79541   270   %  3.9575
     271     -86.51768     27.19446        -59.32321   4.82773   271   %  3.9650
     272     -86.51374     27.25028        -59.26346   4.88748   272   %  3.9718
     273     -86.53124     27.30101        -59.23023   4.92072   273   %  3.9791
     274     -86.53570     27.35749        -59.17821   4.97273   274   %  3.9860
     275     -86.54159     27.40871        -59.13288   5.01806   275   %  3.9931
     276     -86.54003     27.46456        -59.07547   5.07547   276   %  3.9999
     277     -86.55862     27.51524        -59.04338   5.10756   277   %  4.0071
     278     -86.55842     27.57010        -58.98832   5.16262   278   %  4.0136
     279     -86.57597     27.62166        -58.95431   5.19664   279   %  4.0208
     280     -86.57538     27.67767        -58.89771   5.25323   280   %  4.0272
     281     -86.61876     27.72836        -58.89040   5.26054   281   %  4.0342
     282     -86.59074     27.78252        -58.80822   5.34272   282   %  4.0402
     283     -86.63394     27.83347        -58.80047   5.35048   283   %  4.0473
     284     -86.63159     27.88832        -58.74327   5.40767   284   %  4.0532
     285     -86.64870     27.93949        -58.70921   5.44173   285   %  4.0600
     286     -86.64176     27.99560        -58.64616   5.50478   286   %  4.0660
     287     -86.66219     28.04679        -58.61540   5.53554   287   %  4.0726
     288     -86.67850     28.10161        -58.57688   5.57406   288   %  4.0787
     289     -86.69592     28.15227        -58.54366   5.60729   289   %  4.0854
     290     -86.69359     28.20706        -58.48653   5.66441   290   %  4.0912
     291     -86.70954     28.25876        -58.45078   5.70016   291   %  4.0979
     292     -86.71262     28.31383        -58.39878   5.75216   292   %  4.1034
     293     -86.72401     28.36484        -58.35917   5.79177   293   %  4.1099
[...]
     612     -87.52416     44.91608        -42.60808  21.54286   612   %  5.3568
     613     -87.54160     44.96541        -42.57619  21.57475   613   %  5.3618
     614     -87.52750     45.01754        -42.50997  21.64097   614   %  5.3638
     615     -87.54538     45.06677        -42.47862  21.67233   615   %  5.3687
     616     -87.53046     45.12008        -42.41039  21.74056   616   %  5.3708
     617     -87.54931     45.17016        -42.37915  21.77180   617   %  5.3757
     618     -87.52548     45.22376        -42.30172  21.84922   618   %  5.3778
     619     -87.55286     45.27353        -42.27933  21.87161   619   %  5.3824
     620     -87.53445     45.32573        -42.20872  21.94222   620   %  5.3846
     621     -87.58660     45.37445        -42.21215  21.93879   621   %  5.3892
     622     -87.54115     45.42528        -42.11587  22.03507   622   %  5.3917
     623     -87.59277     45.47416        -42.11861  22.03233   623   %  5.3962
     624     -87.52754     45.52625        -42.00129  22.14965   624   %  5.3985
     625     -87.57902     45.57614        -42.00288  22.14806   625   %  5.4030
     626     -87.53132     45.62795        -41.90337  22.24757   626   %  5.4053
     627     -87.58269     45.67772        -41.90497  22.24597   627   %  5.4098
     628     -87.53533     45.72897        -41.80637  22.34458   628   %  5.4121
     629     -87.58638     45.77859        -41.80779  22.34315   629   %  5.4167
     630     -87.53921     45.82980        -41.70941  22.44153   630   %  5.4189
     631     -87.58585     45.87837        -41.70748  22.44346   631   %  5.4234
     632     -87.54138     45.93020        -41.61118  22.53976   632   %  5.4257
     633     -87.58969     45.97977        -41.60993  22.54102   633   %  5.4302
     634     -87.54557     46.03519        -41.51039  22.64056   634   %  5.4326
     635     -87.59369     46.08547        -41.50822  22.64272   635   %  5.4369
     636     -87.54831     46.13967        -41.40864  22.74230   636   %  5.4394
     637     -87.59740     46.19005        -41.40735  22.74359   637   %  5.4437
     638     -87.54914     46.24419        -41.30495  22.84599   638   %  5.4462
     639     -87.60143     46.29385        -41.30758  22.84336   639   %  5.4506
     640     -87.55323     46.34623        -41.20700  22.94394   640   %  5.4530
     641     -87.60885     46.39522        -41.21363  22.93731   641   %  5.4574
     642     -87.55786     46.44678        -41.11108  23.03987   642   %  5.4599
     643     -87.61311     46.49619        -41.11692  23.03402   643   %  5.4644
     644     -87.57087     46.54800        -41.02287  23.12807   644   %  5.4667
     645     -87.61756     46.59739        -41.02017  23.13077   645   %  5.4711
     646     -87.57476     46.64918        -40.92558  23.22536   646   %  5.4734
     647     -87.62047     46.69909        -40.92138  23.22956   647   %  5.4779
     648     -87.57780     46.75141        -40.82640  23.32455   648   %  5.4802
     649     -87.62431     46.80039        -40.82392  23.32703   649   %  5.4846
     650     -87.57003     46.85206        -40.71796  23.43298   650   %  5.4869
     651     -87.62207     46.90206        -40.72002  23.43092   651   %  5.4914
     652     -87.57422     46.95327        -40.62095  23.52999   652   %  5.4935
     653     -87.62073     47.00224        -40.61848  23.53246   653   %  5.4980
     654     -87.59995     47.05393        -40.54602  23.60492   654   %  5.5000
     655     -87.62924     47.10400        -40.52524  23.62570   655   %  5.5047
     656     -87.60390     47.15563        -40.44827  23.70267   656   %  5.5066
     657     -87.62803     47.20528        -40.42275  23.72819   657   %  5.5113
     658     -87.60669     47.25745        -40.34923  23.80171   658   %  5.5132
     659     -87.63663     47.30710        -40.32952  23.82142   659   %  5.5178
     660     -87.60785     47.35856        -40.24929  23.90165   660   %  5.5198
     661     -87.62874     47.40836        -40.22038  23.93056   661   %  5.5244
     662     -87.61134     47.45932        -40.15202  23.99892   662   %  5.5262
     663     -87.63157     47.50833        -40.12323  24.02771   663   %  5.5309
     664     -87.60994     47.55917        -40.05077  24.10017   664   %  5.5328
     665     -87.63034     47.60786        -40.02248  24.12846   665   %  5.5374
     666     -87.61307     47.65868        -39.95439  24.19655   666   %  5.5392
     667     -87.63886     47.70729        -39.93157  24.21937   667   %  5.5438
     668     -87.61663     47.75811        -39.85852  24.29242   668   %  5.5458
     669     -87.64295     47.80760        -39.83535  24.31560   669   %  5.5504
     670     -87.62574     47.85813        -39.76761  24.38333   670   %  5.5522
     671     -87.64646     47.90795        -39.73852  24.41242   671   %  5.5569
     672     -87.63001     47.95847        -39.67155  24.47939   672   %  5.5586
     673     -87.64998     48.00820        -39.64178  24.50917   673   %  5.5633
     674     -87.63349     48.05928        -39.57421  24.57673   674   %  5.5650
     675     -87.65423     48.10893        -39.54530  24.60564   675   %  5.5697
     676     -87.63606     48.16056        -39.47550  24.67544   676   %  5.5714
     677     -87.65856     48.21055        -39.44802  24.70293   677   %  5.5761
     678     -87.64006     48.26191        -39.37815  24.77279   678   %  5.5778
     679     -87.66050     48.31130        -39.34920  24.80174   679   %  5.5825
     680     -87.64128     48.36283        -39.27846  24.87248   680   %  5.5842
     681     -87.66402     48.41181        -39.25221  24.89873   681   %  5.5888
     682     -87.64351     48.46336        -39.18015  24.97079   682   %  5.5905
     683     -87.66719     48.51362        -39.15357  24.99738   683   %  5.5952
     684     -87.64737     48.56480        -39.08257  25.06837   684   %  5.5969
     685     -87.67073     48.61421        -39.05652  25.09443   685   %  5.6016
     686     -87.65109     48.66435        -38.98674  25.16420   686   %  5.6032
     687     -87.67427     48.71277        -38.96150  25.18944   687   %  5.6079
     688     -87.65381     48.76431        -38.88949  25.26145   688   %  5.6096
     689     -87.67810     48.81424        -38.86386  25.28708   689   %  5.6143
     690     -87.65594     48.86650        -38.78944  25.36150   690   %  5.6159
     691     -87.70508     48.91702        -38.78806  25.36288   691   %  5.6206
     692     -87.65836     48.97128        -38.68708  25.46386   692   %  5.6225
     693     -87.70900     49.02079        -38.68821  25.46273   693   %  5.6270
     694     -87.65927     49.07698        -38.58228  25.56866   694   %  5.6290
     695     -87.71409     49.12750        -38.58659  25.56435   695   %  5.6333
     696     -87.66306     49.18107        -38.48199  25.66895   696   %  5.6355
     697     -87.71120     49.23085        -38.48035  25.67059   697   %  5.6400
     698     -87.66021     49.28394        -38.37627  25.77467   698   %  5.6420
     699     -87.71458     49.33315        -38.38143  25.76951   699   %  5.6464
     700     -87.66383     49.38521        -38.27862  25.87232   700   %  5.6485
     701     -87.71845     49.43339        -38.28506  25.86588   701   %  5.6529
     702     -87.67315     49.48586        -38.18728  25.96366   702   %  5.6550
     703     -87.72190     49.53502        -38.18688  25.96406   703   %  5.6595
     704     -87.67418     49.59249        -38.08169  26.06925   704   %  5.6616
     705     -87.72564     49.64369        -38.08195  26.06899   705   %  5.6659
     706     -87.67799     49.69834        -37.97965  26.17129   706   %  5.6681
     707     -87.72938     49.74795        -37.98143  26.16951   707   %  5.6725
     708     -87.67551     49.80242        -37.87310  26.27785   708   %  5.6747
     709     -87.73034     49.85291        -37.87743  26.27351   709   %  5.6791
     710     -87.67674     49.90746        -37.76928  26.38166   710   %  5.6812
     711     -87.72783     49.95768        -37.77015  26.38079   711   %  5.6856
     712     -87.68044     50.01150        -37.66894  26.48200   712   %  5.6877
     713     -87.73163     50.06155        -37.67007  26.48087   713   %  5.6921
     714     -87.68381     50.11594        -37.56788  26.58307   714   %  5.6942
     715     -87.73565     50.16578        -37.56987  26.58107   715   %  5.6986
     716     -87.68784     50.21978        -37.46806  26.68288   716   %  5.7007
     717     -87.74551     50.26965        -37.47586  26.67509   717   %  5.7051
     718     -87.68980     50.32431        -37.36548  26.78546   718   %  5.7072
     719     -87.74736     50.37370        -37.37366  26.77728   719   %  5.7115
     720     -87.69251     50.42836        -37.26415  26.88679   720   %  5.7137
     721     -87.75106     50.47829        -37.27278  26.87816   721   %  5.7181
     722     -87.69621     50.53273        -37.16347  26.98747   722   %  5.7202
     723     -87.75450     50.58194        -37.17255  26.97839   723   %  5.7245
     724     -87.68526     50.63609        -37.04917  27.10178   724   %  5.7266
     725     -87.75907     50.68572        -37.07335  27.07759   725   %  5.7309
     726     -87.68896     50.74028        -36.94869  27.20226   726   %  5.7329
     727     -87.76173     50.78972        -36.97201  27.17893   727   %  5.7372
     728     -87.69123     50.84450        -36.84672  27.30422   728   %  5.7393
     729     -87.74026     50.89348        -36.84679  27.30415   729   %  5.7435
     730     -87.69468     50.94684        -36.74784  27.40310   730   %  5.7453
     731     -87.76175     50.99534        -36.76641  27.38453   731   %  5.7496
     732     -87.71408     51.04946        -36.66462  27.48632   732   %  5.7511
     733     -87.76524     51.09856        -36.66668  27.48426   733   %  5.7555
     734     -87.71687     51.15370        -36.56316  27.58778   734   %  5.7568
     735     -87.76850     51.20411        -36.56440  27.58655   735   %  5.7612
     736     -87.74360     51.25835        -36.48525  27.66569   736   %  5.7625
     737     -87.77435     51.30765        -36.46670  27.68425   737   %  5.7670
     738     -87.72500     51.36152        -36.36348  27.78746   738   %  5.7683
     739     -87.77844     51.41170        -36.36674  27.78420   739   %  5.7726
     740     -87.72980     51.46659        -36.26322  27.88772   740   %  5.7739
     741     -87.77497     51.51668        -36.25829  27.89265   741   %  5.7782
     742     -87.75873     51.57223        -36.18650  27.96444   742   %  5.7796
     743     -87.78620     51.62327        -36.16293  27.98801   743   %  5.7840
     744     -87.73585     51.67919        -36.05666  28.09429   744   %  5.7853
     745     -87.78912     51.72977        -36.05936  28.09159   745   %  5.7895
     746     -87.73896     51.78552        -35.95344  28.19750   746   %  5.7910
     747     -87.79241     51.83567        -35.95675  28.19419   747   %  5.7951
     748     -87.73138     51.89180        -35.83958  28.31136   748   %  5.7966
     749     -87.78521     51.94315        -35.84206  28.30888   749   %  5.8008
     750     -87.73421     51.99914        -35.73507  28.41587   750   %  5.8022
     751     -87.79047     52.04925        -35.74122  28.40972   751   %  5.8064
     752     -87.74029     52.10487        -35.63542  28.51552   752   %  5.8078
     753     -87.79479     52.15524        -35.63955  28.51140   753   %  5.8120
     754     -87.74422     52.21152        -35.53270  28.61824   754   %  5.8135
     755     -87.79807     52.26253        -35.53554  28.61540   755   %  5.8176
     756     -87.74823     52.31750        -35.43073  28.72021   756   %  5.8191
     757     -87.80134     52.36762        -35.43372  28.71722   757   %  5.8233
     758     -87.75103     52.42372        -35.32731  28.82363   758   %  5.8248
     759     -87.80294     52.47413        -35.32881  28.82213   759   %  5.8289
     760     -87.72094     52.53020        -35.19074  28.96020   760   %  5.8305
     761     -87.79444     52.58007        -35.21437  28.93657   761   %  5.8344
     762     -87.72348     52.63559        -35.08789  29.06306   762   %  5.8355
     763     -87.79772     52.68595        -35.11177  29.03917   763   %  5.8394
     764     -87.72391     52.74076        -34.98315  29.16779   764   %  5.8405
     765     -87.80918     52.79132        -35.01786  29.13308   765   %  5.8444
     766     -87.72778     52.84598        -34.88179  29.26915   766   %  5.8454
     767     -87.80343     52.89673        -34.90670  29.24424   767   %  5.8493
     768     -87.75519     52.95259        -34.80260  29.34834   768   %  5.8503
     769     -87.81523     53.00291        -34.81232  29.33862   769   %  5.8542
     770     -87.73104     53.05824        -34.67280  29.47814   770   %  5.8552
     771     -87.80701     53.10831        -34.69870  29.45224   771   %  5.8590
     772     -87.76147     53.16404        -34.59742  29.55352   772   %  5.8600
     773     -87.81912     53.21448        -34.60464  29.54630   773   %  5.8639
     774     -87.74884     53.26943        -34.47942  29.67152   774   %  5.8648
     775     -87.82183     53.31927        -34.50256  29.64838   775   %  5.8685
     776     -87.74978     53.37491        -34.37487  29.77607   776   %  5.8696
     777     -87.86187     53.42575        -34.43612  29.71483   777   %  5.8733
     778     -87.80095     53.48054        -34.32042  29.83053   778   %  5.8747
     779     -87.87614     53.53089        -34.34524  29.80570   779   %  5.8783
     780     -87.82781     53.58522        -34.24259  29.90835   780   %  5.8794
     781     -87.87884     53.63566        -34.24318  29.90776   781   %  5.8830
     782     -87.83015     53.69187        -34.13827  30.01267   782   %  5.8841
     783     -87.87311     53.74263        -34.13049  30.02046   783   %  5.8876
     784     -87.83058     53.79945        -34.03113  30.11981   784   %  5.8887
     785     -87.88342     53.85038        -34.03304  30.11790   785   %  5.8922
     786     -87.83203     53.90812        -33.92391  30.22703   786   %  5.8934
     787     -87.87681     53.95908        -33.91773  30.23321   787   %  5.8968
     788     -87.83579     54.01590        -33.81989  30.33105   788   %  5.8981
     789     -87.90899     54.06683        -33.84216  30.30878   789   %  5.9015
     790     -87.83722     54.12271        -33.71451  30.43643   790   %  5.9025
     791     -87.88240     54.17334        -33.70906  30.44188   791   %  5.9060
     792     -87.84147     54.23110        -33.61037  30.54057   792   %  5.9071
     793     -87.90417     54.28174        -33.62243  30.52851   793   %  5.9105
     794     -87.84013     54.33993        -33.50019  30.65075   794   %  5.9116
     795     -87.90473     54.39103        -33.51369  30.63725   795   %  5.9150
     796     -87.84238     54.45043        -33.39195  30.75899   796   %  5.9160
     797     -87.90719     54.50150        -33.40569  30.74525   797   %  5.9195
     798     -87.84349     54.56203        -33.28146  30.86948   798   %  5.9205
     799     -87.90968     54.61471        -33.29497  30.85597   799   %  5.9241
     800     -87.85477     54.67434        -33.18043  30.97051   800   %  5.9251
     801     -87.91290     54.72586        -33.18704  30.96390   801   %  5.9285
     802     -87.85203     54.78488        -33.06716  31.08378   802   %  5.9296
     803     -87.91021     54.83642        -33.07379  31.07715   803   %  5.9330
     804     -87.84772     54.89611        -32.95161  31.19933   804   %  5.9340
     805     -87.91265     54.94763        -32.96502  31.18592   805   %  5.9375
     806     -87.84910     55.00858        -32.84052  31.31042   806   %  5.9385
     807     -87.91101     55.06097        -32.85004  31.30090   807   %  5.9419
     808     -87.85098     55.12250        -32.72849  31.42246   808   %  5.9433
     809     -87.87763     55.17402        -32.70361  31.44733   809   %  5.9468
     810     -87.85273     55.23535        -32.61737  31.53357   810   %  5.9471
     811     -87.87976     55.28749        -32.59227  31.55867   811   %  5.9507
     812     -87.85528     55.34795        -32.50733  31.64361   812   %  5.9511
     813     -87.92710     55.39909        -32.52801  31.62293   813   %  5.9547
     814     -87.85723     55.45988        -32.39734  31.75360   814   %  5.9562
     815     -87.87648     55.51068        -32.36580  31.78514   815   %  5.9598
     816     -87.81806     55.57008        -32.24798  31.90296   816   %  5.9601
     817     -87.84945     55.62087        -32.22858  31.92236   817   %  5.9638
     818     -87.79509     55.68135        -32.11375  32.03719   818   %  5.9647
     819     -87.85151     55.73264        -32.11887  32.03207   819   %  5.9682
     820     -87.79787     55.79285        -32.00501  32.14593   820   %  5.9691
     821     -87.90723     55.84470        -32.06253  32.08841   821   %  5.9726
     822     -87.80114     55.90530        -31.89584  32.25511   822   %  5.9745
     823     -87.86549     55.95649        -31.90900  32.24194   823   %  5.9779
     824     -87.80329     56.01741        -31.78589  32.36505   824   %  5.9785
     825     -87.86754     56.06937        -31.79817  32.35277   825   %  5.9820
     826     -87.81311     56.12958        -31.68353  32.46741   826   %  5.9827
     827     -87.91420     56.18120        -31.73300  32.41794   827   %  5.9862
     828     -87.80203     56.24194        -31.56009  32.59085   828   %  5.9882
     829     -87.86573     56.29317        -31.57257  32.57837   829   %  5.9918
     830     -87.78820     56.35318        -31.43503  32.71591   830   %  5.9925
     831     -87.84502     56.40524        -31.43977  32.71117   831   %  5.9961
     832     -87.79136     56.46614        -31.32522  32.82572   832   %  5.9966
     833     -87.86718     56.51797        -31.34921  32.80173   833   %  6.0003
     834     -87.79265     56.57970        -31.21295  32.93799   834   %  6.0019
     835     -87.81828     56.63097        -31.18730  32.96364   835   %  6.0055
     836     -87.79373     56.69280        -31.10093  33.05001   836   %  6.0060
     837     -87.81907     56.74549        -31.07358  33.07736   837   %  6.0098
     838     -87.80077     56.80704        -30.99373  33.15721   838   %  6.0102
     839     -87.79735     56.85882        -30.93853  33.21242   839   %  6.0141
     840     -87.77777     56.91874        -30.85903  33.29191   840   %  6.0147
     841     -87.79445     56.96959        -30.82486  33.32608   841   %  6.0187
     842     -87.78097     57.02937        -30.75159  33.39935   842   %  6.0193
     843     -87.78850     57.07996        -30.70853  33.44241   843   %  6.0232
     844     -87.78376     57.13986        -30.64390  33.50704   844   %  6.0239
     845     -87.79169     57.19168        -30.60001  33.55093   845   %  6.0279
     846     -87.77855     57.25127        -30.52728  33.62366   846   %  6.0285
     847     -87.78648     57.30250        -30.48398  33.66696   847   %  6.0324
     848     -87.78029     57.36286        -30.41743  33.73351   848   %  6.0330
     849     -87.79326     57.41469        -30.37857  33.77237   849   %  6.0369
     850     -87.78147     57.47644        -30.30503  33.84591   850   %  6.0376
     851     -87.79113     57.52850        -30.26263  33.88831   851   %  6.0415


           POTENTIAL ENERGY HAS STOPPED DROPPING


 **********************
 *                    *
 * JOB ENDED NORMALLY *
 *                    *
 **********************



 TOTAL JOB TIME:            15.05 SECONDS

 == MOPAC DONE ==
