 *******************************************************************************
 ** Cite this program as: MOPAC2016, Version: 22.067 , James J. P. Stewart,   **
 **                           web-site: HTTP://OpenMOPAC.net.                 **
 *******************************************************************************
 **                                                                           **
 **                                MOPAC2016                                  **
 **                                                                           **
 *******************************************************************************

                              PM7 CALCULATION RESULTS

 *******************************************************************************
 *  CALCULATION DONE:                                Sun Apr 10 09:15:42 2022  *
 *  PM7        - The PM7 Hamiltonian to be used
 *  SINGLET    - SPIN STATE DEFINED AS A SINGLET
 *  NOOPT      - DO NOT OPTIMIZE ANY COORDINATES
 *
 *
 *
 *                 CHARGE ON SYSTEM = 0
 *
 *
 *
 *  T=         - A TIME OF 172800.0 SECONDS REQUESTED
 *  DUMP=N     - RESTART FILE WRITTEN EVERY 7200.0 SECONDS REQUESTED
 *  AUX        - OUTPUT AUXILIARY INFORMATION
 *  LARGE      - EXPANDED OUTPUT TO BE PRINTED
 *******************************************************************************
 AUX LARGE CHARGE=0 SINGLET NOOPT PM7
 Title

   ATOM   CHEMICAL          X               Y               Z
  NUMBER   SYMBOL      (ANGSTROMS)     (ANGSTROMS)     (ANGSTROMS)
 
     1      Cd          4.12571000     16.17919000      6.20512000   
     2      Cd         16.17919000      4.12571000     31.02562000   
     3      Cd          4.12571000      4.12571000     18.61538000   
     4      Cd         16.17919000     16.17919000     43.43587000   
     5      Cd          6.27239000     17.67542000      0.89870000   
     6      Cd         14.03251000      2.62948000     25.71920000   
     7      Cd          2.62948000      6.27239000     13.30895000   
     8      Cd         17.67542000     14.03251000     38.12945000   
     9      Cd         14.03251000     17.67542000     48.74230000   
    10      Cd          6.27239000      2.62948000     23.92180000   
    11      Cd         17.67542000      6.27239000     36.33205000   
    12      Cd          2.62948000     14.03251000     11.51155000   
    13      Cl         10.54738000     19.57798000     10.40624000   
    14      Cl          9.75752000      0.72692000     35.22674000   
    15      Cl          0.72692000     10.54738000     22.81649000   
    16      Cl         19.57798000      9.75752000     47.63699000   
    17      Cl          9.75752000     19.57798000     39.23476000   
    18      Cl         10.54738000      0.72692000     14.41426000   
    19      Cl         19.57798000     10.54738000     26.82451000   
    20      Cl          0.72692000      9.75752000      2.00401000   
    21      Cl         17.82324000      0.09909000      2.50091000   
    22      Cl          2.48166000     20.20581000     27.32141000   
    23      Cl         20.20581000     17.82324000     14.91116000   
    24      Cl          0.09909000      2.48166000     39.73166000   
    25      Cl          2.48166000      0.09909000     47.14009000   
    26      Cl         17.82324000     20.20581000     22.31959000   
    27      Cl          0.09909000     17.82324000     34.72984000   
    28      Cl         20.20581000      2.48166000      9.90934000   
    29      Cl          5.76253000      0.92996000     42.93152000   
    30      Cl         14.54237000     19.37494000     18.11102000   
    31      Cl         19.37494000      5.76253000      5.70077000   
    32      Cl          0.92996000     14.54237000     30.52127000   
    33      Cl         14.54237000      0.92996000      6.70948000   
    34      Cl          5.76253000     19.37494000     31.52998000   
    35      Cl          0.92996000      5.76253000     43.94023000   
    36      Cl         19.37494000     14.54237000     19.11973000   
    37      Cl         14.63902000     18.46101000     38.39285000   
    38      Cl          5.66588000      1.84389000     13.57235000   
    39      Cl          1.84389000     14.63902000      1.16210000   
    40      Cl         18.46101000      5.66588000     25.98260000   
    41      Cl          5.66588000     18.46101000     11.24815000   
    42      Cl         14.63902000      1.84389000     36.06865000   
    43      Cl         18.46101000     14.63902000     48.47890000   
    44      Cl          1.84389000      5.66588000     23.65840000   
    45       O         13.53322000     15.22055000      4.28054000   
    46       O          6.77168000      5.08435000     29.10104000   
    47       O          5.08435000     13.53322000     16.69079000   
    48       O         15.22055000      6.77168000     41.51129000   
    49       O          6.77168000     15.22055000     45.36046000   
    50       O         13.53322000      5.08435000     20.53996000   
    51       O         15.22055000     13.53322000     32.95021000   
    52       O          5.08435000      6.77168000      8.12971000   
    53       H         14.35556000     15.34035000      4.39819000   
    54       H          5.94934000      4.96455000     29.21869000   
    55       H          4.96455000     14.35556000     16.80844000   
    56       H         15.34035000      5.94934000     41.62894000   
    57       H          5.94934000     15.34035000     45.24281000   
    58       H         14.35556000      4.96455000     20.42231000   
    59       H         15.34035000     14.35556000     32.83256000   
    60       H          4.96455000      5.94934000      8.01206000   
    61       O         15.09263000     15.09263000      7.91278000   
    62       O          5.21227000      5.21227000     32.73328000   
    63       O          5.21227000     15.09263000     20.32303000   
    64       O         15.09263000      5.21227000     45.14353000   
    65       O          5.21227000     15.09263000     41.72822000   
    66       O         15.09263000      5.21227000     16.90772000   
    67       O         15.09263000     15.09263000     29.31797000   
    68       O          5.21227000      5.21227000      4.49747000   
    69       H         14.26622000     15.20431000      7.80853000   
    70       H          6.03868000      5.10059000     32.62903000   
    71       H          5.10059000     14.26622000     20.21878000   
    72       H         15.20431000      6.03868000     45.03928000   
    73       H          6.03868000     15.20431000     41.83247000   
    74       H         14.26622000      5.10059000     17.01197000   
    75       H         15.20431000     14.26622000     29.42222000   
    76       H          5.10059000      6.03868000      4.60172000   
    77       O         13.53728000      0.73504000     45.14700000   
    78       O          6.76762000     19.56986000     20.32650000   
    79       O         19.56986000     13.53728000      7.91625000   
    80       O          0.73504000      6.76762000     32.73675000   
    81       O          6.76762000      0.73504000      4.49400000   
    82       O         13.53728000     19.56986000     29.31450000   
    83       O          0.73504000     13.53728000     41.72475000   
    84       O         19.56986000      6.76762000     16.90425000   
    85       H         13.73220000      0.36752000     45.87821000   
    86       H          6.57270000     19.93738000     21.05771000   
    87       H         19.93738000     13.73220000      8.64746000   
    88       H          0.36752000      6.57270000     33.46796000   
    89       H          6.57270000      0.36752000      3.76279000   
    90       H         13.73220000     19.93738000     28.58329000   
    91       H          0.36752000     13.73220000     40.99354000   
    92       H         19.93738000      6.57270000     16.17304000   
    93       O         12.27228000      3.83763000     43.63295000   
    94       O          8.03262000     16.46727000     18.81245000   
    95       O         16.46727000     12.27228000      6.40220000   
    96       O          3.83763000      8.03262000     31.22270000   
    97       O          8.03262000      3.83763000      6.00805000   
    98       O         12.27228000     16.46727000     30.82855000   
    99       O          3.83763000     12.27228000     43.23880000   
   100       O         16.46727000      8.03262000     18.41830000   
   101       H         11.86415000      3.37061000     44.20035000   
   102       H          8.44075000     16.93429000     19.37985000   
   103       H         16.93429000     11.86415000      6.96960000   
   104       H          3.37061000      8.44075000     31.79010000   
   105       H          8.44075000      3.37061000      5.44065000   
   106       H         11.86415000     16.93429000     30.26115000   
   107       H          3.37061000     11.86415000     42.67140000   
   108       H         16.93429000      8.44075000     17.85090000   
   109       O          9.63264000     15.87640000      2.27902000   
   110       O         10.67226000      4.42850000     27.09952000   
   111       O          4.42850000      9.63264000     14.68927000   
   112       O         15.87640000     10.67226000     39.50977000   
   113       O         10.67226000     15.87640000     47.36198000   
   114       O          9.63264000      4.42850000     22.54148000   
   115       O         15.87640000      9.63264000     34.95173000   
   116       O          4.42850000     10.67226000     10.13123000   
   117       O          8.14430000     17.43785000      2.24328000   
   118       O         12.16060000      2.86705000     27.06378000   
   119       O          2.86705000      8.14430000     14.65353000   
   120       O         17.43785000     12.16060000     39.47403000   
   121       O         12.16060000     17.43785000     47.39772000   
   122       O          8.14430000      2.86705000     22.57722000   
   123       O         17.43785000      8.14430000     34.98747000   
   124       O          2.86705000     12.16060000     10.16697000   
   125       O          8.03871000     15.83579000      0.81163000   
   126       O         12.26619000      4.46911000     25.63213000   
   127       O          4.46911000      8.03871000     13.22188000   
   128       O         15.83579000     12.26619000     38.04238000   
   129       O         12.26619000     15.83579000     48.82937000   
   130       O          8.03871000      4.46911000     24.00887000   
   131       O         15.83579000      8.03871000     36.41912000   
   132       O          4.46911000     12.26619000     11.59862000   
   133       O          5.53512000     15.31599000      2.51233000   
   134       O         14.76978000      4.98891000     27.33283000   
   135       O          4.98891000      5.53512000     14.92258000   
   136       O         15.31599000     14.76978000     39.74308000   
   137       O         14.76978000     15.31599000     47.12867000   
   138       O          5.53512000      4.98891000     22.30817000   
   139       O         15.31599000      5.53512000     34.71842000   
   140       O          4.98891000     14.76978000      9.89792000   
   141       O          4.78993000     17.26323000      2.60615000   
   142       O         15.51497000      3.04167000     27.42665000   
   143       O          3.04167000      4.78993000     15.01640000   
   144       O         17.26323000     15.51497000     39.83690000   
   145       O         15.51497000     17.26323000     47.03485000   
   146       O          4.78993000      3.04167000     22.21435000   
   147       O         17.26323000      4.78993000     34.62460000   
   148       O          3.04167000     15.51497000      9.80410000   
   149       O          3.96555000     15.74239000      3.89533000   
   150       O         16.33935000      4.56251000     28.71583000   
   151       O          4.56251000      3.96555000     16.30558000   
   152       O         15.74239000     16.33935000     41.12608000   
   153       O         16.33935000     15.74239000     45.74567000   
   154       O          3.96555000      4.56251000     20.92517000   
   155       O         15.74239000      3.96555000     33.33542000   
   156       O          4.56251000     16.33935000      8.51492000   
   157       O          4.56251000      0.97464000      1.86005000   
   158       O         15.74239000     19.33026000     26.68055000   
   159       O         19.33026000      4.56251000     14.27030000   
   160       O          0.97464000     15.74239000     39.09080000   
   161       O         15.74239000      0.97464000     47.78095000   
   162       O          4.56251000     19.33026000     22.96045000   
   163       O          0.97464000      4.56251000     35.37070000   
   164       O         19.33026000     15.74239000     10.55020000   
   165       O          4.67419000     19.55565000      0.54109000   
   166       O         15.63071000      0.74925000     25.36159000   
   167       O          0.74925000      4.67419000     12.95134000   
   168       O         19.55565000     15.63071000     37.77184000   
   169       O         15.63071000     19.55565000     49.09991000   
   170       O          4.67419000      0.74925000     24.27941000   
   171       O         19.55565000      4.67419000     36.68966000   
   172       O          0.74925000     15.63071000     11.86916000   
   173       O          6.15035000     19.79525000      2.09386000   
   174       O         14.15455000      0.50965000     26.91436000   
   175       O          0.50965000      6.15035000     14.50411000   
   176       O         19.79525000     14.15455000     39.32461000   
   177       O         14.15455000     19.79525000     47.54714000   
   178       O          6.15035000      0.50965000     22.72664000   
   179       O         19.79525000      6.15035000     35.13689000   
   180       O          0.50965000     14.15455000     10.31639000   
   181       N          6.43320000     16.22158000      6.11527000   
   182       N         13.87170000      4.08332000     30.93577000   
   183       N          4.08332000      6.43320000     18.52552000   
   184       N         16.22158000     13.87170000     43.34602000   
   185       N         13.87170000     16.22158000     43.52573000   
   186       N          6.43320000      4.08332000     18.70523000   
   187       N         16.22158000      6.43320000     31.11548000   
   188       N          4.08332000     13.87170000      6.29498000   
   189       N          1.81323000     16.30280000      6.28654000   
   190       N         18.49167000      4.00210000     31.10704000   
   191       N          4.00210000      1.81323000     18.69679000   
   192       N         16.30280000     18.49167000     43.51729000   
   193       N         18.49167000     16.30280000     43.35446000   
   194       N          1.81323000      4.00210000     18.53396000   
   195       N         16.30280000      1.81323000     30.94421000   
   196       N          4.00210000     18.49167000      6.12371000   
   197       N          7.59809000     18.66020000     48.89490000   
   198       N         12.70681000      1.64470000     24.07440000   
   199       N          1.64470000      7.59809000     11.66415000   
   200       N         18.66020000     12.70681000     36.48465000   
   201       N         12.70681000     18.66020000      0.74610000   
   202       N          7.59809000      1.64470000     25.56660000   
   203       N         18.66020000      7.59809000     37.97685000   
   204       N          1.64470000     12.70681000     13.15635000   
   205       N         16.39215000      5.00516000     37.73709000   
   206       N          3.91275000     15.29974000     12.91659000   
   207       N         15.29974000     16.39215000      0.50634000   
   208       N          5.00516000      3.91275000     25.32684000   
   209       N          3.91275000      5.00516000     11.90391000   
   210       N         16.39215000     15.29974000     36.72441000   
   211       N          5.00516000     16.39215000     49.13466000   
   212       N         15.29974000      3.91275000     24.31416000   
   213       N          8.62349000     16.39824000      1.77715000   
   214       N         11.68141000      3.90666000     26.59765000   
   215       N          3.90666000      8.62349000     14.18740000   
   216       N         16.39824000     11.68141000     39.00790000   
   217       N         11.68141000     16.39824000     47.86385000   
   218       N          8.62349000      3.90666000     23.04335000   
   219       N         16.39824000      8.62349000     35.45360000   
   220       N          3.90666000     11.68141000     10.63310000   
   221       N          4.71480000     16.13630000      2.97101000   
   222       N         15.59010000      4.16860000     27.79151000   
   223       N          4.16860000      4.71480000     15.38126000   
   224       N         16.13630000     15.59010000     40.20176000   
   225       N         15.59010000     16.13630000     46.66999000   
   226       N          4.71480000      4.16860000     21.84949000   
   227       N         16.13630000      4.71480000     34.25974000   
   228       N          4.16860000     15.59010000      9.43924000   
   229       N          5.10465000     20.22571000      1.50462000   
   230       N         15.20025000      0.07919000     26.32512000   
   231       N          0.07919000      5.10465000     13.91487000   
   232       N         20.22571000     15.20025000     38.73537000   
   233       N         15.20025000     20.22571000     48.13638000   
   234       N          5.10465000      0.07919000     23.31588000   
   235       N         20.22571000      5.10465000     35.72613000   
   236       N          0.07919000     15.20025000     10.90563000   
   237       C          7.15139000     15.51497000      7.03016000   
   238       C         13.15351000      4.78993000     31.85066000   
   239       C          4.78993000      7.15139000     19.44041000   
   240       C         15.51497000     13.15351000     44.26091000   
   241       C         13.15351000     15.51497000     42.61084000   
   242       C          7.15139000      4.78993000     17.79034000   
   243       C         15.51497000      7.15139000     30.20059000   
   244       C          4.78993000     13.15351000      5.38009000   
   245       H          6.68640000     14.95253000      7.63975000   
   246       H         13.61850000      5.35237000     32.46025000   
   247       H          5.35237000      6.68640000     20.05000000   
   248       H         14.95253000     13.61850000     44.87050000   
   249       H         13.61850000     14.95253000     42.00125000   
   250       H          6.68640000      5.35237000     17.18075000   
   251       H         14.95253000      6.68640000     29.59100000   
   252       H          5.35237000     13.61850000      4.77050000   
   253       C          8.53009000     15.58401000      7.11157000   
   254       C         11.77481000      4.72089000     31.93207000   
   255       C          4.72089000      8.53009000     19.52182000   
   256       C         15.58401000     11.77481000     44.34232000   
   257       C         11.77481000     15.58401000     42.52943000   
   258       C          8.53009000      4.72089000     17.70893000   
   259       C         15.58401000      8.53009000     30.11918000   
   260       C          4.72089000     11.77481000      5.29868000   
   261       H          8.99101000     15.08045000      7.76882000   
   262       H         11.31389000      5.22445000     32.58932000   
   263       H          5.22445000      8.99101000     20.17907000   
   264       H         15.08045000     11.31389000     44.99957000   
   265       H         11.31389000     15.08045000     41.87218000   
   266       H          8.99101000      5.22445000     17.05168000   
   267       H         15.08045000      8.99101000     29.46193000   
   268       H          5.22445000     11.31389000      4.64143000   
   269       C          9.23873000     16.38605000      6.23193000   
   270       C         11.06617000      3.91885000     31.05243000   
   271       C          3.91885000      9.23873000     18.64218000   
   272       C         16.38605000     11.06617000     43.46268000   
   273       C         11.06617000     16.38605000     43.40907000   
   274       C          9.23873000      3.91885000     18.58857000   
   275       C         16.38605000      9.23873000     30.99882000   
   276       C          3.91885000     11.06617000      6.17832000   
   277       C          8.50775000     17.14546000      5.35180000   
   278       C         11.79715000      3.15944000     30.17230000   
   279       C          3.15944000      8.50775000     17.76205000   
   280       C         17.14546000     11.79715000     42.58255000   
   281       C         11.79715000     17.14546000     44.28920000   
   282       C          8.50775000      3.15944000     19.46870000   
   283       C         17.14546000      8.50775000     31.87895000   
   284       C          3.15944000     11.79715000      7.05845000   
   285       H          8.95243000     17.74039000      4.76057000   
   286       H         11.35247000      2.56451000     29.58107000   
   287       H          2.56451000      8.95243000     17.17082000   
   288       H         17.74039000     11.35247000     41.99132000   
   289       H         11.35247000     17.74039000     44.88043000   
   290       H          8.95243000      2.56451000     20.05993000   
   291       H         17.74039000      8.95243000     32.47018000   
   292       H          2.56451000     11.35247000      7.64968000   
   293       C          7.10672000     17.05002000      5.32102000   
   294       C         13.19819000      3.25488000     30.14152000   
   295       C          3.25488000      7.10672000     17.73127000   
   296       C         17.05002000     13.19819000     42.55177000   
   297       C         13.19819000     17.05002000     44.31998000   
   298       C          7.10672000      3.25488000     19.49948000   
   299       C         17.05002000      7.10672000     31.90973000   
   300       C          3.25488000     13.19819000      7.08923000   
   301       H          6.62143000     17.59623000      4.71093000   
   302       H         13.68347000      2.70867000     29.53143000   
   303       H          2.70867000      6.62143000     17.12118000   
   304       H         17.59623000     13.68347000     41.94168000   
   305       H         13.68347000     17.59623000     44.93007000   
   306       H          6.62143000      2.70867000     20.10957000   
   307       H         17.59623000      6.62143000     32.51982000   
   308       H          2.70867000     13.68347000      7.69932000   
   309       C         10.71083000     16.46118000      6.28405000   
   310       C          9.59407000      3.84372000     31.10455000   
   311       C          3.84372000     10.71083000     18.69430000   
   312       C         16.46118000      9.59407000     43.51480000   
   313       C          9.59407000     16.46118000     43.35695000   
   314       C         10.71083000      3.84372000     18.53645000   
   315       C         16.46118000     10.71083000     30.94670000   
   316       C          3.84372000      9.59407000      6.12620000   
   317       C         11.42354000     15.81143000      5.29123000   
   318       C          8.88136000      4.49347000     30.11173000   
   319       C          4.49347000     11.42354000     17.70148000   
   320       C         15.81143000      8.88136000     42.52198000   
   321       C          8.88136000     15.81143000     44.34977000   
   322       C         11.42354000      4.49347000     19.52927000   
   323       C         15.81143000     11.42354000     31.93952000   
   324       C          4.49347000      8.88136000      7.11902000   
   325       H         10.95246000     15.32411000      4.62654000   
   326       H          9.35244000      4.98079000     29.44704000   
   327       H          4.98079000     10.95246000     17.03679000   
   328       H         15.32411000      9.35244000     41.85729000   
   329       H          9.35244000     15.32411000     45.01446000   
   330       H         10.95246000      4.98079000     20.19396000   
   331       H         15.32411000     10.95246000     32.60421000   
   332       H          4.98079000      9.35244000      7.78371000   
   333       C         12.84488000     15.85407000      5.24259000   
   334       C          7.46002000      4.45083000     30.06309000   
   335       C          4.45083000     12.84488000     17.65284000   
   336       C         15.85407000      7.46002000     42.47334000   
   337       C          7.46002000     15.85407000     44.39841000   
   338       C         12.84488000      4.45083000     19.57791000   
   339       C         15.85407000     12.84488000     31.98816000   
   340       C          4.45083000      7.46002000      7.16766000   
   341       C         13.55149000     16.57895000      6.19569000   
   342       C          6.75341000      3.72595000     31.01619000   
   343       C          3.72595000     13.55149000     18.60594000   
   344       C         16.57895000      6.75341000     43.42644000   
   345       C          6.75341000     16.57895000     43.44531000   
   346       C         13.55149000      3.72595000     18.62481000   
   347       C         16.57895000     13.55149000     31.03506000   
   348       C          3.72595000      6.75341000      6.21456000   
   349       C         12.81239000     17.28962000      7.22674000   
   350       C          7.49251000      3.01528000     32.04724000   
   351       C          3.01528000     12.81239000     19.63699000   
   352       C         17.28962000      7.49251000     44.45749000   
   353       C          7.49251000     17.28962000     42.41426000   
   354       C         12.81239000      3.01528000     17.59376000   
   355       C         17.28962000     12.81239000     30.00401000   
   356       C          3.01528000      7.49251000      5.18351000   
   357       C         11.41541000     17.24292000      7.25205000   
   358       C          8.88949000      3.06198000     32.07255000   
   359       C          3.06198000     11.41541000     19.66230000   
   360       C         17.24292000      8.88949000     44.48280000   
   361       C          8.88949000     17.24292000     42.38895000   
   362       C         11.41541000      3.06198000     17.56845000   
   363       C         17.24292000     11.41541000     29.97870000   
   364       C          3.06198000      8.88949000      5.15820000   
   365       C         10.70677000     17.96578000      8.25232000   
   366       C          9.59813000      2.33912000     33.07282000   
   367       C          2.33912000     10.70677000     20.66257000   
   368       C         17.96578000      9.59813000     45.48307000   
   369       C          9.59813000     17.96578000     41.38868000   
   370       C         10.70677000      2.33912000     16.56818000   
   371       C         17.96578000     10.70677000     28.97843000   
   372       C          2.33912000      9.59813000      4.15793000   
   373       H          9.75853000     17.94344000      8.27515000   
   374       H         10.54637000      2.36146000     33.09565000   
   375       H          2.36146000      9.75853000     20.68540000   
   376       H         17.94344000     10.54637000     45.50590000   
   377       H         10.54637000     17.94344000     41.36585000   
   378       H          9.75853000      2.36146000     16.54535000   
   379       H         17.94344000      9.75853000     28.95560000   
   380       H          2.36146000     10.54637000      4.13510000   
   381       C         11.39308000     18.68254000      9.16373000   
   382       C          8.91182000      1.62236000     33.98423000   
   383       C          1.62236000     11.39308000     21.57398000   
   384       C         18.68254000      8.91182000     46.39448000   
   385       C          8.91182000     18.68254000     40.47727000   
   386       C         11.39308000      1.62236000     15.65677000   
   387       C         18.68254000     11.39308000     28.06702000   
   388       C          1.62236000      8.91182000      3.24652000   
   389       C         12.80833000     18.70690000      9.17862000   
   390       C          7.49657000      1.59800000     33.99912000   
   391       C          1.59800000     12.80833000     21.58887000   
   392       C         18.70690000      7.49657000     46.40937000   
   393       C          7.49657000     18.70690000     40.46238000   
   394       C         12.80833000      1.59800000     15.64188000   
   395       C         18.70690000     12.80833000     28.05213000   
   396       C          1.59800000      7.49657000      3.23163000   
   397       H         13.27737000     19.17798000      9.85870000   
   398       H          7.02753000      1.12692000     34.67920000   
   399       H          1.12692000     13.27737000     22.26895000   
   400       H         19.17798000      7.02753000     47.08945000   
   401       H          7.02753000     19.17798000     39.78230000   
   402       H         13.27737000      1.12692000     14.96180000   
   403       H         19.17798000     13.27737000     27.37205000   
   404       H          1.12692000      7.02753000      2.55155000   
   405       C         13.47433000     18.04496000      8.20615000   
   406       C          6.83057000      2.25994000     33.02665000   
   407       C          2.25994000     13.47433000     20.61640000   
   408       C         18.04496000      6.83057000     45.43690000   
   409       C          6.83057000     18.04496000     41.43485000   
   410       C         13.47433000      2.25994000     16.61435000   
   411       C         18.04496000     13.47433000     29.02460000   
   412       C          2.25994000      6.83057000      4.20410000   
   413       H         14.42460000     18.09167000      8.18580000   
   414       H          5.88030000      2.21323000     33.00630000   
   415       H          2.21323000     14.42460000     20.59605000   
   416       H         18.09167000      5.88030000     45.41655000   
   417       H          5.88030000     18.09167000     41.45520000   
   418       H         14.42460000      2.21323000     16.63470000   
   419       H         18.09167000     14.42460000     29.04495000   
   420       H          2.21323000      5.88030000      4.22445000   
   421       C         15.03375000     16.62768000      6.17236000   
   422       C          5.27115000      3.67722000     30.99286000   
   423       C          3.67722000     15.03375000     18.58261000   
   424       C         16.62768000      5.27115000     43.40311000   
   425       C          5.27115000     16.62768000     43.46864000   
   426       C         15.03375000      3.67722000     18.64814000   
   427       C         16.62768000     15.03375000     31.05839000   
   428       C          3.67722000      5.27115000      6.23789000   
   429       C         15.71396000     17.49064000      5.25649000   
   430       C          4.59094000      2.81426000     30.07699000   
   431       C          2.81426000     15.71396000     17.66674000   
   432       C         17.49064000      4.59094000     42.48724000   
   433       C          4.59094000     17.49064000     44.38451000   
   434       C         15.71396000      2.81426000     19.56401000   
   435       C         17.49064000     15.71396000     31.97426000   
   436       C          2.81426000      4.59094000      7.15376000   
   437       C         15.02563000     18.29065000      4.34359000   
   438       C          5.27927000      2.01425000     29.16409000   
   439       C          2.01425000     15.02563000     16.75384000   
   440       C         18.29065000      5.27927000     41.57434000   
   441       C          5.27927000     18.29065000     45.29741000   
   442       C         15.02563000      2.01425000     20.47691000   
   443       C         18.29065000     15.02563000     32.88716000   
   444       C          2.01425000      5.27927000      8.06666000   
   445       H         14.07739000     18.22568000      4.31380000   
   446       H          6.22751000      2.07922000     29.13430000   
   447       H          2.07922000     14.07739000     16.72405000   
   448       H         18.22568000      6.22751000     41.54455000   
   449       H          6.22751000     18.22568000     45.32720000   
   450       H         14.07739000      2.07922000     20.50670000   
   451       H         18.22568000     14.07739000     32.91695000   
   452       H          2.07922000      6.22751000      8.09645000   
   453       C         15.63274000     19.15361000      3.49919000   
   454       C          4.67216000      1.15129000     28.31969000   
   455       C          1.15129000     15.63274000     15.90944000   
   456       C         19.15361000      4.67216000     40.72994000   
   457       C          4.67216000     19.15361000     46.14181000   
   458       C         15.63274000      1.15129000     21.32131000   
   459       C         19.15361000     15.63274000     33.73156000   
   460       C          1.15129000      4.67216000      8.91106000   
   461       H         15.12918000     19.65311000      2.86925000   
   462       H          5.17572000      0.65179000     27.68975000   
   463       H          0.65179000     15.12918000     15.27950000   
   464       H         19.65311000      5.17572000     40.10000000   
   465       H          5.17572000     19.65311000     46.77175000   
   466       H         15.12918000      0.65179000     21.95125000   
   467       H         19.65311000     15.12918000     34.36150000   
   468       H          0.65179000      5.17572000      9.54100000   
   469       C         17.02972000     19.29372000      3.57663000   
   470       C          3.27518000      1.01118000     28.39713000   
   471       C          1.01118000     17.02972000     15.98688000   
   472       C         19.29372000      3.27518000     40.80738000   
   473       C          3.27518000     19.29372000     46.06437000   
   474       C         17.02972000      1.01118000     21.24387000   
   475       C         19.29372000     17.02972000     33.65412000   
   476       C          1.01118000      3.27518000      8.83362000   
   477       C         17.76070000     18.53025000      4.45081000   
   478       C          2.54420000      1.77465000     29.27131000   
   479       C          1.77465000     17.76070000     16.86106000   
   480       C         18.53025000      2.54420000     41.68156000   
   481       C          2.54420000     18.53025000     45.19019000   
   482       C         17.76070000      1.77465000     20.36969000   
   483       C         18.53025000     17.76070000     32.77994000   
   484       C          1.77465000      2.54420000      7.95944000   
   485       H         18.70284000     18.64193000      4.49251000   
   486       H          1.60206000      1.66297000     29.31301000   
   487       H          1.66297000     18.70284000     16.90276000   
   488       H         18.64193000      1.60206000     41.72326000   
   489       H          1.60206000     18.64193000     45.14849000   
   490       H         18.70284000      1.66297000     20.32799000   
   491       H         18.64193000     18.70284000     32.73824000   
   492       H          1.66297000      1.60206000      7.91774000   
   493       C         17.14546000     17.59013000      5.28428000   
   494       C          3.15944000      2.71477000     30.10478000   
   495       C          2.71477000     17.14546000     17.69453000   
   496       C         17.59013000      3.15944000     42.51503000   
   497       C          3.15944000     17.59013000     44.35672000   
   498       C         17.14546000      2.71477000     19.53622000   
   499       C         17.59013000     17.14546000     31.94647000   
   500       C          2.71477000      3.15944000      7.12597000   
   501       C         17.85816000     16.75357000      6.19718000   
   502       C          2.44674000      3.55133000     31.01768000   
   503       C          3.55133000     17.85816000     18.60743000   
   504       C         16.75357000      2.44674000     43.42793000   
   505       C          2.44674000     16.75357000     43.44382000   
   506       C         17.85816000      3.55133000     18.62332000   
   507       C         16.75357000     17.85816000     31.03357000   
   508       C          3.55133000      2.44674000      6.21307000   
   509       C         17.19419000     15.94950000      7.04555000   
   510       C          3.11071000      4.35540000     31.86605000   
   511       C          4.35540000     17.19419000     19.45580000   
   512       C         15.94950000      3.11071000     44.27630000   
   513       C          3.11071000     15.94950000     42.59545000   
   514       C         17.19419000      4.35540000     17.77495000   
   515       C         15.94950000     17.19419000     30.18520000   
   516       C          4.35540000      3.11071000      5.36470000   
   517       H         17.68963000     15.38908000      7.62982000   
   518       H          2.61527000      4.91582000     32.45032000   
   519       H          4.91582000     17.68963000     20.04007000   
   520       H         15.38908000      2.61527000     44.86057000   
   521       H          2.61527000     15.38908000     42.01118000   
   522       H         17.68963000      4.91582000     17.19068000   
   523       H         15.38908000     17.68963000     29.60093000   
   524       H          4.91582000      2.61527000      4.78043000   
   525       C         15.76269000     15.90889000      7.09022000   
   526       C          4.54221000      4.39601000     31.91072000   
   527       C          4.39601000     15.76269000     19.50047000   
   528       C         15.90889000      4.54221000     44.32097000   
   529       C          4.54221000     15.90889000     42.55078000   
   530       C         15.76269000      4.39601000     17.73028000   
   531       C         15.90889000     15.76269000     30.14053000   
   532       C          4.39601000      4.54221000      5.32003000   
   533       C          1.10662000     16.51601000      7.38807000   
   534       C         19.19828000      3.78889000     32.20857000   
   535       C          3.78889000      1.10662000     19.79832000   
   536       C         16.51601000     19.19828000     44.61882000   
   537       C         19.19828000     16.51601000     42.25293000   
   538       C          1.10662000      3.78889000     17.43243000   
   539       C         16.51601000      1.10662000     29.84268000   
   540       C          3.78889000     19.19828000      5.02218000   
   541       H          1.56754000     16.54037000      8.22055000   
   542       H         18.73736000      3.76453000     33.04105000   
   543       H          3.76453000      1.56754000     20.63080000   
   544       H         16.54037000     18.73736000     45.45130000   
   545       H         18.73736000     16.54037000     41.42045000   
   546       H          1.56754000      3.76453000     16.59995000   
   547       H         16.54037000      1.56754000     29.01020000   
   548       H          3.76453000     18.73736000      4.18970000   
   549       C         20.04703000     16.70890000      7.39800000   
   550       C          0.25787000      3.59600000     32.21850000   
   551       C          3.59600000     20.04703000     19.80825000   
   552       C         16.70890000      0.25787000     44.62875000   
   553       C          0.25787000     16.70890000     42.24300000   
   554       C         20.04703000      3.59600000     17.42250000   
   555       C         16.70890000     20.04703000     29.83275000   
   556       C          3.59600000      0.25787000      5.01225000   
   557       H         19.59626000     16.86728000      8.22055000   
   558       H          0.70864000      3.43762000     33.04105000   
   559       H          3.43762000     19.59626000     20.63080000   
   560       H         16.86728000      0.70864000     45.45130000   
   561       H          0.70864000     16.86728000     41.42045000   
   562       H         19.59626000      3.43762000     16.59995000   
   563       H         16.86728000     19.59626000     29.01020000   
   564       H          3.43762000      0.70864000      4.18970000   
   565       C         19.34245000     16.67032000      6.23292000   
   566       C          0.96245000      3.63458000     31.05342000   
   567       C          3.63458000     19.34245000     18.64317000   
   568       C         16.67032000      0.96245000     43.46367000   
   569       C          0.96245000     16.67032000     43.40808000   
   570       C         19.34245000      3.63458000     18.58758000   
   571       C         16.67032000     19.34245000     30.99783000   
   572       C          3.63458000      0.96245000      6.17733000   
   573       C         20.09170000     16.51601000      5.06090000   
   574       C          0.21320000      3.78889000     29.88140000   
   575       C          3.78889000     20.09170000     17.47115000   
   576       C         16.51601000      0.21320000     42.29165000   
   577       C          0.21320000     16.51601000     44.58010000   
   578       C         20.09170000      3.78889000     19.75960000   
   579       C         16.51601000     20.09170000     32.16985000   
   580       C          3.78889000      0.21320000      7.34935000   
   581       H         19.66123000     16.54646000      4.21452000   
   582       H          0.64367000      3.75844000     29.03502000   
   583       H          3.75844000     19.66123000     16.62477000   
   584       H         16.54646000      0.64367000     41.44527000   
   585       H          0.64367000     16.54646000     45.42648000   
   586       H         19.66123000      3.75844000     20.60598000   
   587       H         16.54646000     19.66123000     33.01623000   
   588       H          3.75844000      0.64367000      8.19573000   
   589       C          1.14926000     16.31905000      5.13089000   
   590       C         19.15564000      3.98585000     29.95139000   
   591       C          3.98585000      1.14926000     17.54114000   
   592       C         16.31905000     19.15564000     42.36164000   
   593       C         19.15564000     16.31905000     44.51011000   
   594       C          1.14926000      3.98585000     19.68961000   
   595       C         16.31905000      1.14926000     32.09986000   
   596       C          3.98585000     19.15564000      7.27936000   
   597       H          1.63454000     16.19113000      4.32373000   
   598       H         18.67036000      4.11377000     29.14423000   
   599       H          4.11377000      1.63454000     16.73398000   
   600       H         16.19113000     18.67036000     41.55448000   
   601       H         18.67036000     16.19113000     45.31727000   
   602       H          1.63454000      4.11377000     20.49677000   
   603       H         16.19113000      1.63454000     32.90702000   
   604       H          4.11377000     18.67036000      8.08652000   
   605       C          7.98186000     17.98608000     47.86733000   
   606       C         12.32304000      2.31882000     23.04683000   
   607       C          2.31882000      7.98186000     10.63658000   
   608       C         17.98608000     12.32304000     35.45708000   
   609       C         12.32304000     17.98608000      1.77367000   
   610       C          7.98186000      2.31882000     26.59417000   
   611       C         17.98608000      7.98186000     39.00442000   
   612       C          2.31882000     12.32304000     14.18392000   
   613       H          7.73820000     17.06830000     47.81918000   
   614       H         12.56670000      3.23660000     22.99868000   
   615       H          3.23660000      7.73820000     10.58843000   
   616       H         17.06830000     12.56670000     35.40893000   
   617       H         12.56670000     17.06830000      1.82182000   
   618       H          7.73820000      3.23660000     26.64232000   
   619       H         17.06830000      7.73820000     39.05257000   
   620       H          3.23660000     12.56670000     14.23207000   
   621       C          8.71486000     18.50386000     46.84919000   
   622       C         11.59004000      1.80104000     22.02869000   
   623       C          1.80104000      8.71486000      9.61844000   
   624       C         18.50386000     11.59004000     34.43894000   
   625       C         11.59004000     18.50386000      2.79181000   
   626       C          8.71486000      1.80104000     27.61231000   
   627       C         18.50386000      8.71486000     40.02256000   
   628       C          1.80104000     11.59004000     15.20206000   
   629       H          8.92806000     17.95765000     46.10160000   
   630       H         11.37684000      2.34725000     21.28110000   
   631       H          2.34725000      8.92806000      8.87085000   
   632       H         17.95765000     11.37684000     33.69135000   
   633       H         11.37684000     17.95765000      3.53940000   
   634       H          8.92806000      2.34725000     28.35990000   
   635       H         17.95765000      8.92806000     40.77015000   
   636       H          2.34725000     11.37684000     15.94965000   
   637       C          9.14533000     19.78713000     46.88344000   
   638       C         11.15957000      0.51777000     22.06294000   
   639       C          0.51777000      9.14533000      9.65269000   
   640       C         19.78713000     11.15957000     34.47319000   
   641       C         11.15957000     19.78713000      2.75756000   
   642       C          9.14533000      0.51777000     27.57806000   
   643       C         19.78713000      9.14533000     39.98831000   
   644       C          0.51777000     11.15957000     15.16781000   
   645       C          8.77781000      0.13604000     47.98795000   
   646       C         11.52709000     20.16886000     23.16745000   
   647       C         20.16886000      8.77781000     10.75720000   
   648       C          0.13604000     11.52709000     35.57770000   
   649       C         11.52709000      0.13604000      1.65305000   
   650       C          8.77781000     20.16886000     26.47355000   
   651       C          0.13604000      8.77781000     38.88380000   
   652       C         20.16886000     11.52709000     14.06330000   
   653       H          9.05599000      1.03758000     48.09716000   
   654       H         11.24891000     19.26732000     23.27666000   
   655       H         19.26732000      9.05599000     10.86641000   
   656       H          1.03758000     11.24891000     35.68691000   
   657       H         11.24891000      1.03758000      1.54384000   
   658       H          9.05599000     19.26732000     26.36434000   
   659       H          1.03758000      9.05599000     38.77459000   
   660       H         19.26732000     11.24891000     13.95409000   
   661       C          8.03059000     19.87647000     48.96092000   
   662       C         12.27431000      0.42843000     24.14042000   
   663       C          0.42843000      8.03059000     11.73017000   
   664       C         19.87647000     12.27431000     36.55067000   
   665       C         12.27431000     19.87647000      0.68008000   
   666       C          8.03059000      0.42843000     25.50058000   
   667       C         19.87647000      8.03059000     37.91083000   
   668       C          0.42843000     12.27431000     13.09033000   
   669       H          7.81333000      0.08934000      0.08439000   
   670       H         12.49157000     20.21556000     24.90489000   
   671       H         20.21556000      7.81333000     12.49464000   
   672       H          0.08934000     12.49157000     37.31514000   
   673       H         12.49157000      0.08934000     49.55661000   
   674       H          7.81333000     20.21556000     24.73611000   
   675       H          0.08934000      7.81333000     37.14636000   
   676       H         20.21556000     12.49157000     12.32586000   
   677       C          9.99813000      0.07716000     45.81269000   
   678       C         10.30677000     20.22774000     20.99219000   
   679       C         20.22774000      9.99813000      8.58194000   
   680       C          0.07716000     10.30677000     33.40244000   
   681       C         10.30677000      0.07716000      3.82831000   
   682       C          9.99813000     20.22774000     28.64881000   
   683       C          0.07716000      9.99813000     41.05906000   
   684       C         20.22774000     10.30677000     16.23856000   
   685       C          9.40726000      0.55635000     44.60442000   
   686       C         10.89764000     19.74855000     19.78392000   
   687       C         19.74855000      9.40726000      7.37367000   
   688       C          0.55635000     10.89764000     32.19417000   
   689       C         10.89764000      0.55635000      5.03658000   
   690       C          9.40726000     19.74855000     29.85708000   
   691       C          0.55635000      9.40726000     42.26733000   
   692       C         19.74855000     10.89764000     17.44683000   
   693       C          7.98186000      0.54620000     44.39395000   
   694       C         12.32304000     19.75870000     19.57345000   
   695       C         19.75870000      7.98186000      7.16320000   
   696       C          0.54620000     12.32304000     31.98370000   
   697       C         12.32304000      0.54620000      5.24705000   
   698       C          7.98186000     19.75870000     30.06755000   
   699       C          0.54620000      7.98186000     42.47780000   
   700       C         19.75870000     12.32304000     17.65730000   
   701       H          7.39911000      0.24772000     45.08396000   
   702       H         12.90579000     20.05718000     20.26346000   
   703       H         20.05718000      7.39911000      7.85321000   
   704       H          0.24772000     12.90579000     32.67371000   
   705       H         12.90579000      0.24772000      4.55704000   
   706       H          7.39911000     20.05718000     29.37754000   
   707       H          0.24772000      7.39911000     41.78779000   
   708       H         20.05718000     12.90579000     16.96729000   
   709       C          7.47829000      0.96854000     43.20753000   
   710       C         12.82661000     19.33636000     18.38703000   
   711       C         19.33636000      7.47829000      5.97678000   
   712       C          0.96854000     12.82661000     30.79728000   
   713       C         12.82661000      0.96854000      6.43347000   
   714       C          7.47829000     19.33636000     31.25397000   
   715       C          0.96854000      7.47829000     43.66422000   
   716       C         19.33636000     12.82661000     18.84372000   
   717       C          8.32704000      1.51678000     42.17499000   
   718       C         11.97786000     18.78812000     17.35449000   
   719       C         18.78812000      8.32704000      4.94424000   
   720       C          1.51678000     11.97786000     29.76474000   
   721       C         11.97786000      1.51678000      7.46601000   
   722       C          8.32704000     18.78812000     32.28651000   
   723       C          1.51678000      8.32704000     44.69676000   
   724       C         18.78812000     11.97786000     19.87626000   
   725       H          7.94937000      1.88226000     41.38570000   
   726       H         12.35553000     18.42264000     16.56520000   
   727       H         18.42264000      7.94937000      4.15495000   
   728       H          1.88226000     12.35553000     28.97545000   
   729       H         12.35553000      1.88226000      8.25530000   
   730       H          7.94937000     18.42264000     33.07580000   
   731       H          1.88226000      7.94937000     45.48605000   
   732       H         18.42264000     12.35553000     20.66555000   
   733       C          9.67325000      1.50053000     42.34824000   
   734       C         10.63165000     18.80437000     17.52774000   
   735       C         18.80437000      9.67325000      5.11749000   
   736       C          1.50053000     10.63165000     29.93799000   
   737       C         10.63165000      1.50053000      7.29276000   
   738       C          9.67325000     18.80437000     32.11326000   
   739       C          1.50053000      9.67325000     44.52351000   
   740       C         18.80437000     10.63165000     19.70301000   
   741       H         10.23976000      1.79495000     41.64383000   
   742       H         10.06514000     18.50995000     16.82333000   
   743       H         18.50995000     10.23976000      4.41308000   
   744       H          1.79495000     10.06514000     29.23358000   
   745       H         10.06514000      1.79495000      7.99717000   
   746       H         10.23976000     18.50995000     32.81767000   
   747       H          1.79495000     10.23976000     45.22792000   
   748       H         18.50995000     10.06514000     20.40742000   
   749       C         10.24585000      1.05179000     43.56147000   
   750       C         10.05905000     19.25311000     18.74097000   
   751       C         19.25311000     10.24585000      6.33072000   
   752       C          1.05179000     10.05905000     31.15122000   
   753       C         10.05905000      1.05179000      6.07953000   
   754       C         10.24585000     19.25311000     30.90003000   
   755       C          1.05179000     10.24585000     43.31028000   
   756       C         19.25311000     10.05905000     18.48978000   
   757       C         11.65298000      1.11271000     43.76102000   
   758       C          8.65192000     19.19219000     18.94052000   
   759       C         19.19219000     11.65298000      6.53027000   
   760       C          1.11271000      8.65192000     31.35077000   
   761       C          8.65192000      1.11271000      5.87998000   
   762       C         11.65298000     19.19219000     30.70048000   
   763       C          1.11271000     11.65298000     43.11073000   
   764       C         19.19219000      8.65192000     18.29023000   
   765       C         12.18091000      0.67412000     44.95191000   
   766       C          8.12399000     19.63078000     20.13141000   
   767       C         19.63078000     12.18091000      7.72116000   
   768       C          0.67412000      8.12399000     32.54166000   
   769       C          8.12399000      0.67412000      4.68909000   
   770       C         12.18091000     19.63078000     29.50959000   
   771       C          0.67412000     12.18091000     41.91984000   
   772       C         19.63078000      8.12399000     17.09934000   
   773       C         11.31998000      0.14416000     45.96359000   
   774       C          8.98492000     20.16074000     21.14309000   
   775       C         20.16074000     11.31998000      8.73284000   
   776       C          0.14416000      8.98492000     33.55334000   
   777       C          8.98492000      0.14416000      3.67741000   
   778       C         11.31998000     20.16074000     28.49791000   
   779       C          0.14416000     11.31998000     40.90816000   
   780       C         20.16074000      8.98492000     16.08766000   
   781       H         11.70577000     20.13434000     46.77175000   
   782       H          8.59913000      0.17056000     21.95125000   
   783       H          0.17056000     11.70577000      9.54100000   
   784       H         20.13434000      8.59913000     34.36150000   
   785       H          8.59913000     20.13434000      2.86925000   
   786       H         11.70577000      0.17056000     27.68975000   
   787       H         20.13434000     11.70577000     40.10000000   
   788       H          0.17056000      8.59913000     15.27950000   
   789       C         12.52609000      1.69343000     42.69374000   
   790       C          7.77881000     18.61147000     17.87324000   
   791       C         18.61147000     12.52609000      5.46299000   
   792       C          1.69343000      7.77881000     30.28349000   
   793       C          7.77881000      1.69343000      6.94726000   
   794       C         12.52609000     18.61147000     31.76776000   
   795       C          1.69343000     12.52609000     44.17801000   
   796       C         18.61147000      7.77881000     19.35751000   
   797       C         13.07433000      0.87920000     41.68305000   
   798       C          7.23057000     19.42570000     16.86255000   
   799       C         19.42570000     13.07433000      4.45230000   
   800       C          0.87920000      7.23057000     29.27280000   
   801       C          7.23057000      0.87920000      7.95795000   
   802       C         13.07433000     19.42570000     32.77845000   
   803       C          0.87920000     13.07433000     45.18870000   
   804       C         19.42570000      7.23057000     20.36820000   
   805       C         12.87940000     19.76682000     41.70787000   
   806       C          7.42550000      0.53808000     16.88737000   
   807       C          0.53808000     12.87940000      4.47712000   
   808       C         19.76682000      7.42550000     29.29762000   
   809       C          7.42550000     19.76682000      7.93313000   
   810       C         12.87940000      0.53808000     32.75363000   
   811       C         19.76682000     12.87940000     45.16388000   
   812       C          0.53808000      7.42550000     20.34338000   
   813       H         12.40629000     19.38509000     42.43809000   
   814       H          7.89861000      0.91981000     17.61759000   
   815       H          0.91981000     12.40629000      5.20734000   
   816       H         19.38509000      7.89861000     30.02784000   
   817       H          7.89861000     19.38509000      7.20291000   
   818       H         12.40629000      0.91981000     32.02341000   
   819       H         19.38509000     12.40629000     44.43366000   
   820       H          0.91981000      7.89861000     19.61316000   
   821       C         13.34641000     18.93838000     40.72647000   
   822       C          6.95849000      1.36652000     15.90597000   
   823       C          1.36652000     13.34641000      3.49572000   
   824       C         18.93838000      6.95849000     28.31622000   
   825       C          6.95849000     18.93838000      8.91453000   
   826       C         13.34641000      1.36652000     33.73503000   
   827       C         18.93838000     13.34641000     46.14528000   
   828       C          1.36652000      6.95849000     21.32478000   
   829       H         13.21037000     17.99826000     40.77512000   
   830       H          7.09453000      2.30664000     15.95462000   
   831       H          2.30664000     13.21037000      3.54437000   
   832       H         17.99826000      7.09453000     28.36487000   
   833       H          7.09453000     17.99826000      8.86588000   
   834       H         13.21037000      2.30664000     33.68638000   
   835       H         17.99826000     13.21037000     46.09663000   
   836       H          2.30664000      7.09453000     21.27613000   
   837       C         14.04693000     19.52316000     39.62841000   
   838       C          6.25797000      0.78174000     14.80791000   
   839       C          0.78174000     14.04693000      2.39766000   
   840       C         19.52316000      6.25797000     27.21816000   
   841       C          6.25797000     19.52316000     10.01259000   
   842       C         14.04693000      0.78174000     34.83309000   
   843       C         19.52316000     14.04693000     47.24334000   
   844       C          0.78174000      6.25797000     22.42284000   
   845       C         14.25404000      0.57463000     39.57728000   
   846       C          6.05086000     19.73027000     14.75678000   
   847       C         19.73027000     14.25404000      2.34653000   
   848       C          0.57463000      6.05086000     27.16703000   
   849       C          6.05086000      0.57463000     10.06372000   
   850       C         14.25404000     19.73027000     34.88422000   
   851       C          0.57463000     14.25404000     47.29447000   
   852       C         19.73027000      6.05086000     22.47397000   
   853       H         14.71090000      0.94215000     38.82919000   
   854       H          5.59400000     19.36275000     14.00869000   
   855       H         19.36275000     14.71090000      1.59844000   
   856       H          0.94215000      5.59400000     26.41894000   
   857       H          5.59400000      0.94215000     10.81181000   
   858       H         14.71090000     19.36275000     35.63231000   
   859       H          0.94215000     14.71090000     48.04256000   
   860       H         19.36275000      5.59400000     23.22206000   
   861       C         13.81748000      1.42134000     40.58350000   
   862       C          6.48742000     18.88356000     15.76300000   
   863       C         18.88356000     13.81748000      3.35275000   
   864       C          1.42134000      6.48742000     28.17325000   
   865       C          6.48742000      1.42134000      9.05750000   
   866       C         13.81748000     18.88356000     33.87800000   
   867       C          1.42134000     13.81748000     46.28825000   
   868       C         18.88356000      6.48742000     21.46775000   
   869       C         14.05708000      2.85284000     40.62073000   
   870       C          6.24782000     17.45206000     15.80023000   
   871       C         17.45206000     14.05708000      3.38998000   
   872       C          2.85284000      6.24782000     28.21048000   
   873       C          6.24782000      2.85284000      9.02027000   
   874       C         14.05708000     17.45206000     33.84077000   
   875       C          2.85284000     14.05708000     46.25102000   
   876       C         17.45206000      6.24782000     21.43052000   
   877       C         13.57789000      3.60615000     41.62001000   
   878       C          6.72701000     16.69875000     16.79951000   
   879       C         16.69875000     13.57789000      4.38926000   
   880       C          3.60615000      6.72701000     29.20976000   
   881       C          6.72701000      3.60615000      8.02099000   
   882       C         13.57789000     16.69875000     32.84149000   
   883       C          3.60615000     13.57789000     45.25174000   
   884       C         16.69875000      6.72701000     20.43124000   
   885       H         13.77078000      4.53611000     41.62894000   
   886       H          6.53412000     15.76879000     16.80844000   
   887       H         15.76879000     13.77078000      4.39819000   
   888       H          4.53611000      6.53412000     29.21869000   
   889       H          6.53412000      4.53611000      8.01206000   
   890       H         13.77078000     15.76879000     32.83256000   
   891       H          4.53611000     13.77078000     45.24281000   
   892       H         15.76879000      6.53412000     20.42231000   
   893       C         12.78193000      3.04167000     42.67637000   
   894       C          7.52297000     17.26323000     17.85587000   
   895       C         17.26323000     12.78193000      5.44562000   
   896       C          3.04167000      7.52297000     30.26612000   
   897       C          7.52297000      3.04167000      6.96463000   
   898       C         12.78193000     17.26323000     31.78513000   
   899       C          3.04167000     12.78193000     44.19538000   
   900       C         17.26323000      7.52297000     19.37488000   
   901       C         16.87743000      3.87417000     38.27371000   
   902       C          3.42747000     16.43073000     13.45321000   
   903       C         16.43073000     16.87743000      1.04296000   
   904       C          3.87417000      3.42747000     25.86346000   
   905       C          3.42747000      3.87417000     11.36729000   
   906       C         16.87743000     16.43073000     36.18779000   
   907       C          3.87417000     16.87743000     48.59804000   
   908       C         16.43073000      3.42747000     23.77754000   
   909       C         16.11803000      3.11477000     39.17519000   
   910       C          4.18687000     17.19013000     14.35469000   
   911       C         17.19013000     16.11803000      1.94444000   
   912       C          3.11477000      4.18687000     26.76494000   
   913       C          4.18687000      3.11477000     10.46581000   
   914       C         16.11803000     17.19013000     35.28631000   
   915       C          3.11477000     16.11803000     47.69656000   
   916       C         17.19013000      4.18687000     22.87606000   
   917       H         16.47946000      2.31273000     39.53409000   
   918       H          3.82544000     17.99217000     14.71359000   
   919       H         17.99217000     16.47946000      2.30334000   
   920       H          2.31273000      3.82544000     27.12384000   
   921       H          3.82544000      2.31273000     10.10691000   
   922       H         16.47946000     17.99217000     34.92741000   
   923       H          2.31273000     16.47946000     47.33766000   
   924       H         17.99217000      3.82544000     22.51716000   
   925       C         14.86116000      3.51275000     39.54750000   
   926       C          5.44374000     16.79215000     14.72700000   
   927       C         16.79215000     14.86116000      2.31675000   
   928       C          3.51275000      5.44374000     27.13725000   
   929       C          5.44374000      3.51275000     10.09350000   
   930       C         14.86116000     16.79215000     34.91400000   
   931       C          3.51275000     14.86116000     47.32425000   
   932       C         16.79215000      5.44374000     22.50375000   
   933       C         14.36166000      4.68637000     38.96223000   
   934       C          5.94324000     15.61853000     14.14173000   
   935       C         15.61853000     14.36166000      1.73148000   
   936       C          4.68637000      5.94324000     26.55198000   
   937       C          5.94324000      4.68637000     10.67877000   
   938       C         14.36166000     15.61853000     35.49927000   
   939       C          4.68637000     14.36166000     47.90952000   
   940       C         15.61853000      5.94324000     23.08902000   
   941       H         13.48855000      4.99297000     39.18164000   
   942       H          6.81635000     15.31193000     14.36114000   
   943       H         15.31193000     13.48855000      1.95089000   
   944       H          4.99297000      6.81635000     26.77139000   
   945       H          6.81635000      4.99297000     10.45936000   
   946       H         13.48855000     15.31193000     35.27986000   
   947       H          4.99297000     13.48855000     47.69011000   
   948       H         15.31193000      6.81635000     22.86961000   
   949       C         15.14136000      5.39298000     38.06720000   
   950       C          5.16354000     14.91192000     13.24670000   
   951       C         14.91192000     15.14136000      0.83645000   
   952       C          5.39298000      5.16354000     25.65695000   
   953       C          5.16354000      5.39298000     11.57380000   
   954       C         15.14136000     14.91192000     36.39430000   
   955       C          5.39298000     15.14136000     48.80455000   
   956       C         14.91192000      5.16354000     23.98405000   
   957       H         14.78400000      6.17878000     37.67255000   
   958       H          5.52090000     14.12612000     12.85205000   
   959       H         14.12612000     14.78400000      0.44180000   
   960       H          6.17878000      5.52090000     25.26230000   
   961       H          5.52090000      6.17878000     11.96845000   
   962       H         14.78400000     14.12612000     36.78895000   
   963       H          6.17878000     14.78400000     49.19920000   
   964       H         14.12612000      5.52090000     24.37870000   
   965       H          3.57569000      2.55395000     25.63461000   
   966       H         16.72921000     17.75095000      0.81411000   
   967       H         17.75095000      3.57569000     38.04486000   
   968       H          2.55395000     16.72921000     13.22436000   
   969       H         16.72921000      2.55395000     24.00639000   
   970       H          3.57569000     17.75095000     48.82689000   
   971       H          2.55395000      3.57569000     11.59614000   
   972       H         17.75095000     16.72921000     36.41664000   
   973      Tv         20.30490000      0.00000000      0.00000000   
   974      Tv          0.00000000     20.30490000      0.00000000   
   975      Tv          0.00000000      0.00000000     49.64100000   
 

                   THE SYSTEM IS A SOLID


                UNIT CELL TRANSLATION VECTORS

              X                Y              Z
    T1 =    20.3049000      0.0000000      0.0000000
    T2 =     0.0000000     20.3049000      0.0000000
    T3 =     0.0000000      0.0000000     49.6410000


          CARTESIAN COORDINATES 

    NO.       ATOM           X           Y           Z

     1        Cd          4.1257     16.1792      6.2051
     2        Cd         16.1792      4.1257     31.0256
     3        Cd          4.1257      4.1257     18.6154
     4        Cd         16.1792     16.1792     43.4359
     5        Cd          6.2724     17.6754      0.8987
     6        Cd         14.0325      2.6295     25.7192
     7        Cd          2.6295      6.2724     13.3089
     8        Cd         17.6754     14.0325     38.1294
     9        Cd         14.0325     17.6754     48.7423
    10        Cd          6.2724      2.6295     23.9218
    11        Cd         17.6754      6.2724     36.3321
    12        Cd          2.6295     14.0325     11.5115
    13        Cl         10.5474     19.5780     10.4062
    14        Cl          9.7575      0.7269     35.2267
    15        Cl          0.7269     10.5474     22.8165
    16        Cl         19.5780      9.7575     47.6370
    17        Cl          9.7575     19.5780     39.2348
    18        Cl         10.5474      0.7269     14.4143
    19        Cl         19.5780     10.5474     26.8245
    20        Cl          0.7269      9.7575      2.0040
    21        Cl         17.8232      0.0991      2.5009
    22        Cl          2.4817     20.2058     27.3214
    23        Cl         20.2058     17.8232     14.9112
    24        Cl          0.0991      2.4817     39.7317
    25        Cl          2.4817      0.0991     47.1401
    26        Cl         17.8232     20.2058     22.3196
    27        Cl          0.0991     17.8232     34.7298
    28        Cl         20.2058      2.4817      9.9093
    29        Cl          5.7625      0.9300     42.9315
    30        Cl         14.5424     19.3749     18.1110
    31        Cl         19.3749      5.7625      5.7008
    32        Cl          0.9300     14.5424     30.5213
    33        Cl         14.5424      0.9300      6.7095
    34        Cl          5.7625     19.3749     31.5300
    35        Cl          0.9300      5.7625     43.9402
    36        Cl         19.3749     14.5424     19.1197
    37        Cl         14.6390     18.4610     38.3929
    38        Cl          5.6659      1.8439     13.5724
    39        Cl          1.8439     14.6390      1.1621
    40        Cl         18.4610      5.6659     25.9826
    41        Cl          5.6659     18.4610     11.2482
    42        Cl         14.6390      1.8439     36.0686
    43        Cl         18.4610     14.6390     48.4789
    44        Cl          1.8439      5.6659     23.6584
    45         O         13.5332     15.2205      4.2805
    46         O          6.7717      5.0843     29.1010
    47         O          5.0843     13.5332     16.6908
    48         O         15.2205      6.7717     41.5113
    49         O          6.7717     15.2205     45.3605
    50         O         13.5332      5.0843     20.5400
    51         O         15.2205     13.5332     32.9502
    52         O          5.0843      6.7717      8.1297
    53         H         14.3556     15.3404      4.3982
    54         H          5.9493      4.9646     29.2187
    55         H          4.9646     14.3556     16.8084
    56         H         15.3404      5.9493     41.6289
    57         H          5.9493     15.3404     45.2428
    58         H         14.3556      4.9646     20.4223
    59         H         15.3404     14.3556     32.8326
    60         H          4.9646      5.9493      8.0121
    61         O         15.0926     15.0926      7.9128
    62         O          5.2123      5.2123     32.7333
    63         O          5.2123     15.0926     20.3230
    64         O         15.0926      5.2123     45.1435
    65         O          5.2123     15.0926     41.7282
    66         O         15.0926      5.2123     16.9077
    67         O         15.0926     15.0926     29.3180
    68         O          5.2123      5.2123      4.4975
    69         H         14.2662     15.2043      7.8085
    70         H          6.0387      5.1006     32.6290
    71         H          5.1006     14.2662     20.2188
    72         H         15.2043      6.0387     45.0393
    73         H          6.0387     15.2043     41.8325
    74         H         14.2662      5.1006     17.0120
    75         H         15.2043     14.2662     29.4222
    76         H          5.1006      6.0387      4.6017
    77         O         13.5373      0.7350     45.1470
    78         O          6.7676     19.5699     20.3265
    79         O         19.5699     13.5373      7.9162
    80         O          0.7350      6.7676     32.7368
    81         O          6.7676      0.7350      4.4940
    82         O         13.5373     19.5699     29.3145
    83         O          0.7350     13.5373     41.7248
    84         O         19.5699      6.7676     16.9043
    85         H         13.7322      0.3675     45.8782
    86         H          6.5727     19.9374     21.0577
    87         H         19.9374     13.7322      8.6475
    88         H          0.3675      6.5727     33.4680
    89         H          6.5727      0.3675      3.7628
    90         H         13.7322     19.9374     28.5833
    91         H          0.3675     13.7322     40.9935
    92         H         19.9374      6.5727     16.1730
    93         O         12.2723      3.8376     43.6330
    94         O          8.0326     16.4673     18.8124
    95         O         16.4673     12.2723      6.4022
    96         O          3.8376      8.0326     31.2227
    97         O          8.0326      3.8376      6.0080
    98         O         12.2723     16.4673     30.8285
    99         O          3.8376     12.2723     43.2388
   100         O         16.4673      8.0326     18.4183
   101         H         11.8642      3.3706     44.2004
   102         H          8.4407     16.9343     19.3799
   103         H         16.9343     11.8642      6.9696
   104         H          3.3706      8.4407     31.7901
   105         H          8.4407      3.3706      5.4406
   106         H         11.8642     16.9343     30.2612
   107         H          3.3706     11.8642     42.6714
   108         H         16.9343      8.4407     17.8509
   109         O          9.6326     15.8764      2.2790
   110         O         10.6723      4.4285     27.0995
   111         O          4.4285      9.6326     14.6893
   112         O         15.8764     10.6723     39.5098
   113         O         10.6723     15.8764     47.3620
   114         O          9.6326      4.4285     22.5415
   115         O         15.8764      9.6326     34.9517
   116         O          4.4285     10.6723     10.1312
   117         O          8.1443     17.4379      2.2433
   118         O         12.1606      2.8670     27.0638
   119         O          2.8670      8.1443     14.6535
   120         O         17.4379     12.1606     39.4740
   121         O         12.1606     17.4379     47.3977
   122         O          8.1443      2.8670     22.5772
   123         O         17.4379      8.1443     34.9875
   124         O          2.8670     12.1606     10.1670
   125         O          8.0387     15.8358      0.8116
   126         O         12.2662      4.4691     25.6321
   127         O          4.4691      8.0387     13.2219
   128         O         15.8358     12.2662     38.0424
   129         O         12.2662     15.8358     48.8294
   130         O          8.0387      4.4691     24.0089
   131         O         15.8358      8.0387     36.4191
   132         O          4.4691     12.2662     11.5986
   133         O          5.5351     15.3160      2.5123
   134         O         14.7698      4.9889     27.3328
   135         O          4.9889      5.5351     14.9226
   136         O         15.3160     14.7698     39.7431
   137         O         14.7698     15.3160     47.1287
   138         O          5.5351      4.9889     22.3082
   139         O         15.3160      5.5351     34.7184
   140         O          4.9889     14.7698      9.8979
   141         O          4.7899     17.2632      2.6061
   142         O         15.5150      3.0417     27.4266
   143         O          3.0417      4.7899     15.0164
   144         O         17.2632     15.5150     39.8369
   145         O         15.5150     17.2632     47.0348
   146         O          4.7899      3.0417     22.2143
   147         O         17.2632      4.7899     34.6246
   148         O          3.0417     15.5150      9.8041
   149         O          3.9655     15.7424      3.8953
   150         O         16.3393      4.5625     28.7158
   151         O          4.5625      3.9655     16.3056
[...]
  472  C   1.09792   0.95399   0.96339   0.96202
  473  C   1.09792   0.96339   0.95399   0.96202
  474  C   1.09792   0.96339   0.95399   0.96202
  475  C   1.09792   0.95399   0.96339   0.96202
  476  C   1.09792   0.95399   0.96339   0.96202
  477  C   1.05471   1.09521   1.00264   1.00568
  478  C   1.05471   1.09521   1.00264   1.00568
  479  C   1.05471   1.00264   1.09521   1.00568
  480  C   1.05471   1.00264   1.09521   1.00568
  481  C   1.05471   1.09521   1.00264   1.00568
  482  C   1.05471   1.09521   1.00264   1.00568
  483  C   1.05471   1.00264   1.09521   1.00568
  484  C   1.05471   1.00264   1.09521   1.00568
  485  H   0.85012
  486  H   0.85012
  487  H   0.85012
  488  H   0.85012
  489  H   0.85012
  490  H   0.85012
  491  H   0.85012
  492  H   0.85012
  493  C   1.05588   0.97716   1.00186   0.99914
  494  C   1.05588   0.97716   1.00186   0.99914
  495  C   1.05588   1.00186   0.97716   0.99914
  496  C   1.05588   1.00186   0.97716   0.99914
  497  C   1.05588   0.97716   1.00186   0.99914
  498  C   1.05588   0.97716   1.00186   0.99914
  499  C   1.05588   1.00186   0.97716   0.99914
  500  C   1.05588   1.00186   0.97716   0.99914
  501  C   1.06104   0.95971   0.98786   0.98170
  502  C   1.06104   0.95971   0.98786   0.98170
  503  C   1.06104   0.98786   0.95971   0.98170
  504  C   1.06104   0.98786   0.95971   0.98170
  505  C   1.06104   0.95971   0.98786   0.98170
  506  C   1.06104   0.95971   0.98786   0.98170
  507  C   1.06104   0.98786   0.95971   0.98170
  508  C   1.06104   0.98786   0.95971   0.98170
  509  C   1.05711   0.99415   1.05833   1.05625
  510  C   1.05711   0.99415   1.05833   1.05625
  511  C   1.05711   1.05833   0.99415   1.05625
  512  C   1.05711   1.05833   0.99415   1.05625
  513  C   1.05711   0.99415   1.05833   1.05625
  514  C   1.05711   0.99415   1.05833   1.05625
  515  C   1.05711   1.05833   0.99415   1.05625
  516  C   1.05711   1.05833   0.99415   1.05625
  517  H   0.82687
  518  H   0.82687
  519  H   0.82687
  520  H   0.82687
  521  H   0.82687
  522  H   0.82687
  523  H   0.82687
  524  H   0.82687
  525  C   1.07338   0.92216   0.84282   0.83846
  526  C   1.07338   0.92216   0.84282   0.83846
  527  C   1.07338   0.84282   0.92216   0.83846
  528  C   1.07338   0.84282   0.92216   0.83846
  529  C   1.07338   0.92216   0.84282   0.83846
  530  C   1.07338   0.92216   0.84282   0.83846
  531  C   1.07338   0.84282   0.92216   0.83846
  532  C   1.07338   0.84282   0.92216   0.83846
  533  C   1.06413   0.96915   0.90154   0.97409
  534  C   1.06413   0.96915   0.90154   0.97409
  535  C   1.06413   0.90154   0.96915   0.97409
  536  C   1.06413   0.90154   0.96915   0.97409
  537  C   1.06413   0.96915   0.90154   0.97409
  538  C   1.06413   0.96915   0.90154   0.97409
  539  C   1.06413   0.90154   0.96915   0.97409
  540  C   1.06413   0.90154   0.96915   0.97409
  541  H   0.82847
  542  H   0.82847
  543  H   0.82847
  544  H   0.82847
  545  H   0.82847
  546  H   0.82847
  547  H   0.82847
  548  H   0.82847
  549  C   1.06098   1.02014   1.02981   1.08799
  550  C   1.06098   1.02014   1.02981   1.08799
  551  C   1.06098   1.02981   1.02014   1.08799
  552  C   1.06098   1.02981   1.02014   1.08799
  553  C   1.06098   1.02014   1.02981   1.08799
  554  C   1.06098   1.02014   1.02981   1.08799
  555  C   1.06098   1.02981   1.02014   1.08799
  556  C   1.06098   1.02981   1.02014   1.08799
  557  H   0.82609
  558  H   0.82609
  559  H   0.82609
  560  H   0.82609
  561  H   0.82609
  562  H   0.82609
  563  H   0.82609
  564  H   0.82609
  565  C   1.06702   0.96646   0.89524   0.97941
  566  C   1.06702   0.96646   0.89524   0.97941
  567  C   1.06702   0.89524   0.96646   0.97941
  568  C   1.06702   0.89524   0.96646   0.97941
  569  C   1.06702   0.96646   0.89524   0.97941
  570  C   1.06702   0.96646   0.89524   0.97941
  571  C   1.06702   0.89524   0.96646   0.97941
  572  C   1.06702   0.89524   0.96646   0.97941
  573  C   1.06426   1.01996   1.05208   1.08390
  574  C   1.06426   1.01996   1.05208   1.08390
  575  C   1.06426   1.05208   1.01996   1.08390
  576  C   1.06426   1.05208   1.01996   1.08390
  577  C   1.06426   1.01996   1.05208   1.08390
  578  C   1.06426   1.01996   1.05208   1.08390
  579  C   1.06426   1.05208   1.01996   1.08390
  580  C   1.06426   1.05208   1.01996   1.08390
  581  H   0.84634
  582  H   0.84634
  583  H   0.84634
  584  H   0.84634
  585  H   0.84634
  586  H   0.84634
  587  H   0.84634
  588  H   0.84634
  589  C   1.06402   0.97181   0.92346   0.96491
  590  C   1.06402   0.97181   0.92346   0.96491
  591  C   1.06402   0.92346   0.97181   0.96491
  592  C   1.06402   0.92346   0.97181   0.96491
  593  C   1.06402   0.97181   0.92346   0.96491
  594  C   1.06402   0.97181   0.92346   0.96491
  595  C   1.06402   0.92346   0.97181   0.96491
  596  C   1.06402   0.92346   0.97181   0.96491
  597  H   0.83216
  598  H   0.83216
  599  H   0.83216
  600  H   0.83216
  601  H   0.83216
  602  H   0.83216
  603  H   0.83216
  604  H   0.83216
  605  C   1.04840   0.93889   1.04858   0.88981
  606  C   1.04840   0.93889   1.04858   0.88981
  607  C   1.04840   1.04858   0.93889   0.88981
  608  C   1.04840   1.04858   0.93889   0.88981
  609  C   1.04840   0.93889   1.04858   0.88981
  610  C   1.04840   0.93889   1.04858   0.88981
  611  C   1.04840   1.04858   0.93889   0.88981
  612  C   1.04840   1.04858   0.93889   0.88981
  613  H   0.83138
  614  H   0.83138
  615  H   0.83138
  616  H   0.83138
  617  H   0.83138
  618  H   0.83138
  619  H   0.83138
  620  H   0.83138
  621  C   1.05267   1.01722   1.03597   1.08205
  622  C   1.05267   1.01722   1.03597   1.08205
  623  C   1.05267   1.03597   1.01722   1.08205
  624  C   1.05267   1.03597   1.01722   1.08205
  625  C   1.05267   1.01722   1.03597   1.08205
  626  C   1.05267   1.01722   1.03597   1.08205
  627  C   1.05267   1.03597   1.01722   1.08205
  628  C   1.05267   1.03597   1.01722   1.08205
  629  H   0.83754
  630  H   0.83754
  631  H   0.83754
  632  H   0.83754
  633  H   0.83754
  634  H   0.83754
  635  H   0.83754
  636  H   0.83754
  637  C   1.05007   0.92320   0.98200   0.96037
  638  C   1.05007   0.92320   0.98200   0.96037
  639  C   1.05007   0.98200   0.92320   0.96037
  640  C   1.05007   0.98200   0.92320   0.96037
  641  C   1.05007   0.92320   0.98200   0.96037
  642  C   1.05007   0.92320   0.98200   0.96037
  643  C   1.05007   0.98200   0.92320   0.96037
  644  C   1.05007   0.98200   0.92320   0.96037
  645  C   1.04378   1.05254   1.11945   1.01762
  646  C   1.04378   1.05254   1.11945   1.01762
  647  C   1.04378   1.11945   1.05254   1.01762
  648  C   1.04378   1.11945   1.05254   1.01762
  649  C   1.04378   1.05254   1.11945   1.01762
  650  C   1.04378   1.05254   1.11945   1.01762
  651  C   1.04378   1.11945   1.05254   1.01762
  652  C   1.04378   1.11945   1.05254   1.01762
  653  H   0.84368
  654  H   0.84368
  655  H   0.84368
  656  H   0.84368
  657  H   0.84368
  658  H   0.84368
  659  H   0.84368
  660  H   0.84368
  661  C   1.04644   0.93511   0.91138   1.03584
  662  C   1.04644   0.93511   0.91138   1.03584
  663  C   1.04644   0.91138   0.93511   1.03584
  664  C   1.04644   0.91138   0.93511   1.03584
  665  C   1.04644   0.93511   0.91138   1.03584
  666  C   1.04644   0.93511   0.91138   1.03584
  667  C   1.04644   0.91138   0.93511   1.03584
  668  C   1.04644   0.91138   0.93511   1.03584
  669  H   0.83924
  670  H   0.83924
  671  H   0.83924
  672  H   0.83924
  673  H   0.83924
  674  H   0.83924
  675  H   0.83924
  676  H   0.83924
  677  C   1.05791   0.97977   0.97564   0.96560
  678  C   1.05791   0.97977   0.97564   0.96560
  679  C   1.05791   0.97564   0.97977   0.96560
  680  C   1.05791   0.97564   0.97977   0.96560
  681  C   1.05791   0.97977   0.97564   0.96560
  682  C   1.05791   0.97977   0.97564   0.96560
  683  C   1.05791   0.97564   0.97977   0.96560
  684  C   1.05791   0.97564   0.97977   0.96560
  685  C   1.06212   0.96772   1.03178   0.97517
  686  C   1.06212   0.96772   1.03178   0.97517
  687  C   1.06212   1.03178   0.96772   0.97517
  688  C   1.06212   1.03178   0.96772   0.97517
  689  C   1.06212   0.96772   1.03178   0.97517
  690  C   1.06212   0.96772   1.03178   0.97517
  691  C   1.06212   1.03178   0.96772   0.97517
  692  C   1.06212   1.03178   0.96772   0.97517
  693  C   1.05992   1.01528   1.04243   1.04233
  694  C   1.05992   1.01528   1.04243   1.04233
  695  C   1.05992   1.04243   1.01528   1.04233
  696  C   1.05992   1.04243   1.01528   1.04233
  697  C   1.05992   1.01528   1.04243   1.04233
  698  C   1.05992   1.01528   1.04243   1.04233
  699  C   1.05992   1.04243   1.01528   1.04233
  700  C   1.05992   1.04243   1.01528   1.04233
  701  H   0.85168
  702  H   0.85168
  703  H   0.85168
  704  H   0.85168
  705  H   0.85168
  706  H   0.85168
  707  H   0.85168
  708  H   0.85168
  709  C   1.10426   0.86427   1.00647   0.98783
  710  C   1.10426   0.86427   1.00647   0.98783
  711  C   1.10426   1.00647   0.86427   0.98783
  712  C   1.10426   1.00647   0.86427   0.98783
  713  C   1.10426   0.86427   1.00647   0.98783
  714  C   1.10426   0.86427   1.00647   0.98783
  715  C   1.10426   1.00647   0.86427   0.98783
  716  C   1.10426   1.00647   0.86427   0.98783
  717  C   1.06515   1.00119   1.00614   1.05366
  718  C   1.06515   1.00119   1.00614   1.05366
  719  C   1.06515   1.00614   1.00119   1.05366
  720  C   1.06515   1.00614   1.00119   1.05366
  721  C   1.06515   1.00119   1.00614   1.05366
  722  C   1.06515   1.00119   1.00614   1.05366
  723  C   1.06515   1.00614   1.00119   1.05366
  724  C   1.06515   1.00614   1.00119   1.05366
  725  H   0.84909
  726  H   0.84909
  727  H   0.84909
  728  H   0.84909
  729  H   0.84909
  730  H   0.84909
  731  H   0.84909
  732  H   0.84909
  733  C   1.06042   1.02227   1.00461   1.03395
  734  C   1.06042   1.02227   1.00461   1.03395
  735  C   1.06042   1.00461   1.02227   1.03395
  736  C   1.06042   1.00461   1.02227   1.03395
  737  C   1.06042   1.02227   1.00461   1.03395
  738  C   1.06042   1.02227   1.00461   1.03395
  739  C   1.06042   1.00461   1.02227   1.03395
  740  C   1.06042   1.00461   1.02227   1.03395
  741  H   0.84774
  742  H   0.84774
  743  H   0.84774
  744  H   0.84774
  745  H   0.84774
  746  H   0.84774
  747  H   0.84774
  748  H   0.84774
  749  C   1.06197   0.95586   0.97146   0.97442
  750  C   1.06197   0.95586   0.97146   0.97442
  751  C   1.06197   0.97146   0.95586   0.97442
  752  C   1.06197   0.97146   0.95586   0.97442
  753  C   1.06197   0.95586   0.97146   0.97442
  754  C   1.06197   0.95586   0.97146   0.97442
  755  C   1.06197   0.97146   0.95586   0.97442
  756  C   1.06197   0.97146   0.95586   0.97442
  757  C   1.05087   0.97711   1.12675   0.99423
  758  C   1.05087   0.97711   1.12675   0.99423
  759  C   1.05087   1.12675   0.97711   0.99423
  760  C   1.05087   1.12675   0.97711   0.99423
  761  C   1.05087   0.97711   1.12675   0.99423
  762  C   1.05087   0.97711   1.12675   0.99423
  763  C   1.05087   1.12675   0.97711   0.99423
  764  C   1.05087   1.12675   0.97711   0.99423
  765  C   1.07695   0.78280   0.90046   0.93976
  766  C   1.07695   0.78280   0.90046   0.93976
  767  C   1.07695   0.90046   0.78280   0.93976
  768  C   1.07695   0.90046   0.78280   0.93976
  769  C   1.07695   0.78280   0.90046   0.93976
  770  C   1.07695   0.78280   0.90046   0.93976
  771  C   1.07695   0.90046   0.78280   0.93976
  772  C   1.07695   0.90046   0.78280   0.93976
  773  C   1.05741   1.00885   1.06152   1.09093
  774  C   1.05741   1.00885   1.06152   1.09093
  775  C   1.05741   1.06152   1.00885   1.09093
  776  C   1.05741   1.06152   1.00885   1.09093
  777  C   1.05741   1.00885   1.06152   1.09093
  778  C   1.05741   1.00885   1.06152   1.09093
  779  C   1.05741   1.06152   1.00885   1.09093
  780  C   1.05741   1.06152   1.00885   1.09093
  781  H   0.82861
  782  H   0.82861
  783  H   0.82861
  784  H   0.82861
  785  H   0.82861
  786  H   0.82861
  787  H   0.82861
  788  H   0.82861
  789  C   1.05168   1.07717   0.98444   1.02836
  790  C   1.05168   1.07717   0.98444   1.02836
  791  C   1.05168   0.98444   1.07717   1.02836
  792  C   1.05168   0.98444   1.07717   1.02836
  793  C   1.05168   1.07717   0.98444   1.02836
  794  C   1.05168   1.07717   0.98444   1.02836
  795  C   1.05168   0.98444   1.07717   1.02836
  796  C   1.05168   0.98444   1.07717   1.02836
  797  C   1.06497   0.94992   0.97105   0.95273
  798  C   1.06497   0.94992   0.97105   0.95273
  799  C   1.06497   0.97105   0.94992   0.95273
  800  C   1.06497   0.97105   0.94992   0.95273
  801  C   1.06497   0.94992   0.97105   0.95273
  802  C   1.06497   0.94992   0.97105   0.95273
  803  C   1.06497   0.97105   0.94992   0.95273
  804  C   1.06497   0.97105   0.94992   0.95273
  805  C   1.06321   1.03023   0.99591   1.05502
  806  C   1.06321   1.03023   0.99591   1.05502
  807  C   1.06321   0.99591   1.03023   1.05502
  808  C   1.06321   0.99591   1.03023   1.05502
  809  C   1.06321   1.03023   0.99591   1.05502
  810  C   1.06321   1.03023   0.99591   1.05502
  811  C   1.06321   0.99591   1.03023   1.05502
  812  C   1.06321   0.99591   1.03023   1.05502
  813  H   0.85502
  814  H   0.85502
  815  H   0.85502
  816  H   0.85502
  817  H   0.85502
  818  H   0.85502
  819  H   0.85502
  820  H   0.85502
  821  C   1.06655   0.99152   1.08733   0.97874
  822  C   1.06655   0.99152   1.08733   0.97874
  823  C   1.06655   1.08733   0.99152   0.97874
  824  C   1.06655   1.08733   0.99152   0.97874
  825  C   1.06655   0.99152   1.08733   0.97874
  826  C   1.06655   0.99152   1.08733   0.97874
  827  C   1.06655   1.08733   0.99152   0.97874
  828  C   1.06655   1.08733   0.99152   0.97874
  829  H   0.84653
  830  H   0.84653
  831  H   0.84653
  832  H   0.84653
  833  H   0.84653
  834  H   0.84653
  835  H   0.84653
  836  H   0.84653
  837  C   1.09927   1.00497   0.94063   0.92554
  838  C   1.09927   1.00497   0.94063   0.92554
  839  C   1.09927   0.94063   1.00497   0.92554
  840  C   1.09927   0.94063   1.00497   0.92554
  841  C   1.09927   1.00497   0.94063   0.92554
  842  C   1.09927   1.00497   0.94063   0.92554
  843  C   1.09927   0.94063   1.00497   0.92554
  844  C   1.09927   0.94063   1.00497   0.92554
  845  C   1.05134   1.04675   0.99199   1.06214
  846  C   1.05134   1.04675   0.99199   1.06214
  847  C   1.05134   0.99199   1.04675   1.06214
  848  C   1.05134   0.99199   1.04675   1.06214
  849  C   1.05134   1.04675   0.99199   1.06214
  850  C   1.05134   1.04675   0.99199   1.06214
  851  C   1.05134   0.99199   1.04675   1.06214
  852  C   1.05134   0.99199   1.04675   1.06214
  853  H   0.84526
  854  H   0.84526
  855  H   0.84526
  856  H   0.84526
  857  H   0.84526
  858  H   0.84526
  859  H   0.84526
  860  H   0.84526
  861  C   1.05521   1.03375   0.95916   0.99278
  862  C   1.05521   1.03375   0.95916   0.99278
  863  C   1.05521   0.95916   1.03375   0.99278
  864  C   1.05521   0.95916   1.03375   0.99278
  865  C   1.05521   1.03375   0.95916   0.99278
  866  C   1.05521   1.03375   0.95916   0.99278
  867  C   1.05521   0.95916   1.03375   0.99278
  868  C   1.05521   0.95916   1.03375   0.99278
  869  C   1.06590   0.97669   0.97277   0.97106
  870  C   1.06590   0.97669   0.97277   0.97106
  871  C   1.06590   0.97277   0.97669   0.97106
  872  C   1.06590   0.97277   0.97669   0.97106
  873  C   1.06590   0.97669   0.97277   0.97106
  874  C   1.06590   0.97669   0.97277   0.97106
  875  C   1.06590   0.97277   0.97669   0.97106
  876  C   1.06590   0.97277   0.97669   0.97106
  877  C   1.05236   1.04042   1.09982   1.00303
  878  C   1.05236   1.04042   1.09982   1.00303
  879  C   1.05236   1.09982   1.04042   1.00303
  880  C   1.05236   1.09982   1.04042   1.00303
  881  C   1.05236   1.04042   1.09982   1.00303
  882  C   1.05236   1.04042   1.09982   1.00303
  883  C   1.05236   1.09982   1.04042   1.00303
  884  C   1.05236   1.09982   1.04042   1.00303
  885  H   0.84538
  886  H   0.84538
  887  H   0.84538
  888  H   0.84538
  889  H   0.84538
  890  H   0.84538
  891  H   0.84538
  892  H   0.84538
  893  C   1.07145   0.88666   0.88470   0.84875
  894  C   1.07145   0.88666   0.88470   0.84875
  895  C   1.07145   0.88470   0.88666   0.84875
  896  C   1.07145   0.88470   0.88666   0.84875
  897  C   1.07145   0.88666   0.88470   0.84875
  898  C   1.07145   0.88666   0.88470   0.84875
  899  C   1.07145   0.88470   0.88666   0.84875
  900  C   1.07145   0.88470   0.88666   0.84875
  901  C   1.07433   1.03541   0.86947   0.90386
  902  C   1.07433   1.03541   0.86947   0.90386
  903  C   1.07433   0.86947   1.03541   0.90386
  904  C   1.07433   0.86947   1.03541   0.90386
  905  C   1.07433   1.03541   0.86947   0.90386
  906  C   1.07433   1.03541   0.86947   0.90386
  907  C   1.07433   0.86947   1.03541   0.90386
  908  C   1.07433   0.86947   1.03541   0.90386
  909  C   1.06066   1.02232   1.09468   1.05741
  910  C   1.06066   1.02232   1.09468   1.05741
  911  C   1.06066   1.09468   1.02232   1.05741
  912  C   1.06066   1.09467   1.02232   1.05741
  913  C   1.06066   1.02232   1.09468   1.05741
  914  C   1.06066   1.02232   1.09467   1.05741
  915  C   1.06066   1.09467   1.02232   1.05741
  916  C   1.06066   1.09467   1.02232   1.05741
  917  H   0.84545
  918  H   0.84545
  919  H   0.84545
  920  H   0.84545
  921  H   0.84545
  922  H   0.84545
  923  H   0.84545
  924  H   0.84545
  925  C   1.07135   0.96042   0.95295   0.93449
  926  C   1.07135   0.96042   0.95295   0.93449
  927  C   1.07135   0.95295   0.96042   0.93449
  928  C   1.07135   0.95295   0.96042   0.93449
  929  C   1.07135   0.96042   0.95295   0.93449
  930  C   1.07135   0.96042   0.95295   0.93449
  931  C   1.07135   0.95295   0.96042   0.93449
  932  C   1.07135   0.95295   0.96042   0.93449
  933  C   1.06740   1.09890   1.01181   1.03878
  934  C   1.06740   1.09890   1.01181   1.03878
  935  C   1.06740   1.01181   1.09890   1.03878
  936  C   1.06740   1.01181   1.09890   1.03878
  937  C   1.06740   1.09890   1.01181   1.03878
  938  C   1.06740   1.09890   1.01181   1.03878
  939  C   1.06740   1.01181   1.09890   1.03878
  940  C   1.06740   1.01181   1.09890   1.03878
  941  H   0.83879
  942  H   0.83879
  943  H   0.83879
  944  H   0.83879
  945  H   0.83879
  946  H   0.83879
  947  H   0.83879
  948  H   0.83879
  949  C   1.07230   0.85649   1.01663   0.92607
  950  C   1.07230   0.85649   1.01663   0.92607
  951  C   1.07230   1.01663   0.85649   0.92607
  952  C   1.07230   1.01663   0.85649   0.92607
  953  C   1.07230   0.85649   1.01663   0.92607
  954  C   1.07230   0.85649   1.01663   0.92607
  955  C   1.07230   1.01663   0.85649   0.92607
  956  C   1.07230   1.01663   0.85649   0.92607
  957  H   0.82247
  958  H   0.82247
  959  H   0.82247
  960  H   0.82247
  961  H   0.82247
  962  H   0.82247
  963  H   0.82247
  964  H   0.82247
  965  H   0.83149
  966  H   0.83149
  967  H   0.83149
  968  H   0.83149
  969  H   0.83149
  970  H   0.83149
  971  H   0.83149
  972  H   0.83149

 **********************
 *                    *
 * JOB ENDED NORMALLY *
 *                    *
 **********************



 TOTAL JOB TIME:           571.70 SECONDS

 == MOPAC DONE ==
