 *******************************************************************************
 ** Cite this program as: MOPAC2016, Version: 22.067 , James J. P. Stewart,   **
 **                           web-site: HTTP://OpenMOPAC.net.                 **
 *******************************************************************************
 **                                                                           **
 **                                MOPAC2016                                  **
 **                                                                           **
 *******************************************************************************

                              PM7 CALCULATION RESULTS

 *******************************************************************************
 *  CALCULATION DONE:                                Sun Apr 10 10:27:53 2022  *
 *  PM7        - The PM7 Hamiltonian to be used
 *  SINGLET    - SPIN STATE DEFINED AS A SINGLET
 *  NOOPT      - DO NOT OPTIMIZE ANY COORDINATES
 *
 *
 *
 *                 CHARGE ON SYSTEM = 0
 *
 *
 *
 *  T=         - A TIME OF 172800.0 SECONDS REQUESTED
 *  DUMP=N     - RESTART FILE WRITTEN EVERY 7200.0 SECONDS REQUESTED
 *  AUX        - OUTPUT AUXILIARY INFORMATION
 *  LARGE      - EXPANDED OUTPUT TO BE PRINTED
 *******************************************************************************
 AUX LARGE CHARGE=0 SINGLET NOOPT PM7
 Title

   ATOM   CHEMICAL          X               Y               Z
  NUMBER   SYMBOL      (ANGSTROMS)     (ANGSTROMS)     (ANGSTROMS)
 
     1      Cu          7.51566000      7.51566000      0.00000000   
     2      Cu         18.82734000     18.82734000      0.00000000   
     3      Cu         18.82734000      7.51566000      0.00000000   
     4      Cu          7.51566000     18.82734000      0.00000000   
     5      Cu          0.00000000      7.51566000      7.51566000   
     6      Cu          0.00000000     18.82734000     18.82734000   
     7      Cu          0.00000000     18.82734000      7.51566000   
     8      Cu          0.00000000      7.51566000     18.82734000   
     9      Cu          7.51566000      0.00000000      7.51566000   
    10      Cu         18.82734000      0.00000000     18.82734000   
    11      Cu          7.51566000      0.00000000     18.82734000   
    12      Cu         18.82734000      0.00000000      7.51566000   
    13      Cu          7.51566000     20.68716000     13.17150000   
    14      Cu         18.82734000      5.65584000     13.17150000   
    15      Cu         18.82734000     20.68716000     13.17150000   
    16      Cu          7.51566000      5.65584000     13.17150000   
    17      Cu          0.00000000     20.68716000     20.68716000   
    18      Cu          0.00000000      5.65584000      5.65584000   
    19      Cu          0.00000000      5.65584000     20.68716000   
    20      Cu          0.00000000     20.68716000      5.65584000   
    21      Cu          7.51566000     13.17150000     20.68716000   
    22      Cu         18.82734000     13.17150000      5.65584000   
    23      Cu          7.51566000     13.17150000      5.65584000   
    24      Cu         18.82734000     13.17150000     20.68716000   
    25      Cu         20.68716000      7.51566000     13.17150000   
    26      Cu          5.65584000     18.82734000     13.17150000   
    27      Cu          5.65584000      7.51566000     13.17150000   
    28      Cu         20.68716000     18.82734000     13.17150000   
    29      Cu         13.17150000      7.51566000     20.68716000   
    30      Cu         13.17150000     18.82734000      5.65584000   
    31      Cu         13.17150000     18.82734000     20.68716000   
    32      Cu         13.17150000      7.51566000      5.65584000   
    33      Cu         20.68716000      0.00000000     20.68716000   
    34      Cu          5.65584000      0.00000000      5.65584000   
    35      Cu         20.68716000      0.00000000      5.65584000   
    36      Cu          5.65584000      0.00000000     20.68716000   
    37      Cu         20.68716000     20.68716000      0.00000000   
    38      Cu          5.65584000      5.65584000      0.00000000   
    39      Cu          5.65584000     20.68716000      0.00000000   
    40      Cu         20.68716000      5.65584000      0.00000000   
    41      Cu         13.17150000     20.68716000      7.51566000   
    42      Cu         13.17150000      5.65584000     18.82734000   
    43      Cu         13.17150000      5.65584000      7.51566000   
    44      Cu         13.17150000     20.68716000     18.82734000   
    45      Cu         20.68716000     13.17150000      7.51566000   
    46      Cu          5.65584000     13.17150000     18.82734000   
    47      Cu         20.68716000     13.17150000     18.82734000   
    48      Cu          5.65584000     13.17150000      7.51566000   
    49       O          8.34019000      6.40398000     24.96790000   
    50       O         18.00281000     19.93902000      1.37510000   
    51       O         18.00281000     19.93902000     24.96790000   
    52       O          8.34019000      6.40398000      1.37510000   
    53       O         18.00281000      6.40398000      1.37510000   
    54       O          8.34019000     19.93902000     24.96790000   
    55       O          8.34019000     19.93902000      1.37510000   
    56       O         18.00281000      6.40398000     24.96790000   
    57       O         24.96790000      8.34019000      6.40398000   
    58       O          1.37510000     18.00281000     19.93902000   
    59       O         24.96790000     18.00281000     19.93902000   
    60       O          1.37510000      8.34019000      6.40398000   
    61       O          1.37510000     18.00281000      6.40398000   
    62       O         24.96790000      8.34019000     19.93902000   
    63       O          1.37510000      8.34019000     19.93902000   
    64       O         24.96790000     18.00281000      6.40398000   
    65       O          6.40398000     24.96790000      8.34019000   
    66       O         19.93902000      1.37510000     18.00281000   
    67       O         19.93902000     24.96790000     18.00281000   
    68       O          6.40398000      1.37510000      8.34019000   
    69       O          6.40398000      1.37510000     18.00281000   
    70       O         19.93902000     24.96790000      8.34019000   
    71       O         19.93902000      1.37510000      8.34019000   
    72       O          6.40398000     24.96790000     18.00281000   
    73       O          6.40398000      8.34019000      1.37510000   
    74       O         19.93902000     18.00281000     24.96790000   
    75       O         19.93902000     18.00281000      1.37510000   
    76       O          6.40398000      8.34019000     24.96790000   
    77       O          6.40398000     18.00281000     24.96790000   
    78       O         19.93902000      8.34019000      1.37510000   
    79       O         19.93902000      8.34019000     24.96790000   
    80       O          6.40398000     18.00281000      1.37510000   
    81       O          8.34019000     24.96790000     19.93902000   
    82       O         18.00281000      1.37510000      6.40398000   
    83       O         18.00281000     24.96790000      6.40398000   
    84       O          8.34019000      1.37510000     19.93902000   
    85       O         18.00281000      1.37510000     19.93902000   
    86       O          8.34019000     24.96790000      6.40398000   
    87       O          8.34019000      1.37510000      6.40398000   
    88       O         18.00281000     24.96790000     19.93902000   
    89       O         24.96790000      6.40398000     18.00281000   
    90       O          1.37510000     19.93902000      8.34019000   
    91       O         24.96790000     19.93902000      8.34019000   
    92       O          1.37510000      6.40398000     18.00281000   
    93       O          1.37510000      6.40398000      8.34019000   
    94       O         24.96790000     19.93902000     18.00281000   
    95       O          1.37510000     19.93902000     18.00281000   
    96       O         24.96790000      6.40398000      8.34019000   
    97       O          8.34019000     19.57548000     11.79640000   
    98       O         18.00281000      6.76752000     14.54660000   
    99       O         18.00281000      6.76752000     11.79640000   
   100       O          8.34019000     19.57548000     14.54660000   
   101       O         18.00281000     19.57548000     14.54660000   
   102       O          8.34019000      6.76752000     11.79640000   
   103       O          8.34019000      6.76752000     14.54660000   
   104       O         18.00281000     19.57548000     11.79640000   
   105       O         24.96790000     21.51169000     19.57548000   
   106       O          1.37510000      4.83131000      6.76752000   
   107       O         24.96790000      4.83131000      6.76752000   
   108       O          1.37510000     21.51169000     19.57548000   
   109       O          1.37510000      4.83131000     19.57548000   
   110       O         24.96790000     21.51169000      6.76752000   
   111       O          1.37510000     21.51169000      6.76752000   
   112       O         24.96790000      4.83131000     19.57548000   
   113       O          6.40398000     11.79640000     21.51169000   
   114       O         19.93902000     14.54660000      4.83131000   
   115       O         19.93902000     11.79640000      4.83131000   
   116       O          6.40398000     14.54660000     21.51169000   
   117       O          6.40398000     14.54660000      4.83131000   
   118       O         19.93902000     11.79640000     21.51169000   
   119       O         19.93902000     14.54660000     21.51169000   
   120       O          6.40398000     11.79640000      4.83131000   
   121       O          6.40398000     21.51169000     14.54660000   
   122       O         19.93902000      4.83131000     11.79640000   
   123       O         19.93902000      4.83131000     14.54660000   
   124       O          6.40398000     21.51169000     11.79640000   
   125       O          6.40398000      4.83131000     11.79640000   
   126       O         19.93902000     21.51169000     14.54660000   
   127       O         19.93902000     21.51169000     11.79640000   
   128       O          6.40398000      4.83131000     14.54660000   
   129       O          8.34019000     11.79640000      6.76752000   
   130       O         18.00281000     14.54660000     19.57548000   
   131       O         18.00281000     11.79640000     19.57548000   
   132       O          8.34019000     14.54660000      6.76752000   
   133       O         18.00281000     14.54660000      6.76752000   
   134       O          8.34019000     11.79640000     19.57548000   
   135       O          8.34019000     14.54660000     19.57548000   
   136       O         18.00281000     11.79640000      6.76752000   
   137       O         24.96790000     19.57548000      4.83131000   
   138       O          1.37510000      6.76752000     21.51169000   
   139       O         24.96790000      6.76752000     21.51169000   
   140       O          1.37510000     19.57548000      4.83131000   
   141       O          1.37510000     19.57548000     21.51169000   
   142       O         24.96790000      6.76752000      4.83131000   
   143       O          1.37510000      6.76752000      4.83131000   
   144       O         24.96790000     19.57548000     21.51169000   
   145       O         21.51169000      6.40398000     11.79640000   
   146       O          4.83131000     19.93902000     14.54660000   
   147       O          4.83131000     19.93902000     11.79640000   
   148       O         21.51169000      6.40398000     14.54660000   
   149       O          4.83131000      6.40398000     14.54660000   
   150       O         21.51169000     19.93902000     11.79640000   
   151       O         21.51169000     19.93902000     14.54660000   
   152       O          4.83131000      6.40398000     11.79640000   
   153       O         11.79640000      8.34019000     19.57548000   
   154       O         14.54660000     18.00281000      6.76752000   
   155       O         11.79640000     18.00281000      6.76752000   
   156       O         14.54660000      8.34019000     19.57548000   
   157       O         14.54660000     18.00281000     19.57548000   
   158       O         11.79640000      8.34019000      6.76752000   
   159       O         14.54660000      8.34019000      6.76752000   
   160       O         11.79640000     18.00281000     19.57548000   
   161       O         19.57548000     24.96790000     21.51169000   
   162       O          6.76752000      1.37510000      4.83131000   
   163       O          6.76752000     24.96790000      4.83131000   
   164       O         19.57548000      1.37510000     21.51169000   
   165       O         19.57548000      1.37510000      4.83131000   
   166       O          6.76752000     24.96790000     21.51169000   
   167       O          6.76752000      1.37510000     21.51169000   
   168       O         19.57548000     24.96790000      4.83131000   
   169       O         19.57548000      8.34019000     14.54660000   
   170       O          6.76752000     18.00281000     11.79640000   
   171       O          6.76752000     18.00281000     14.54660000   
   172       O         19.57548000      8.34019000     11.79640000   
   173       O         19.57548000     18.00281000     11.79640000   
   174       O          6.76752000      8.34019000     14.54660000   
   175       O          6.76752000      8.34019000     11.79640000   
   176       O         19.57548000     18.00281000     14.54660000   
   177       O         21.51169000     24.96790000      6.76752000   
   178       O          4.83131000      1.37510000     19.57548000   
   179       O          4.83131000     24.96790000     19.57548000   
   180       O         21.51169000      1.37510000      6.76752000   
   181       O          4.83131000      1.37510000      6.76752000   
   182       O         21.51169000     24.96790000     19.57548000   
   183       O         21.51169000      1.37510000     19.57548000   
   184       O          4.83131000     24.96790000      6.76752000   
   185       O         11.79640000      6.40398000      4.83131000   
   186       O         14.54660000     19.93902000     21.51169000   
   187       O         11.79640000     19.93902000     21.51169000   
   188       O         14.54660000      6.40398000      4.83131000   
   189       O         14.54660000      6.40398000     21.51169000   
   190       O         11.79640000     19.93902000      4.83131000   
   191       O         14.54660000     19.93902000      4.83131000   
   192       O         11.79640000      6.40398000     21.51169000   
   193       O         21.51169000     19.57548000     24.96790000   
   194       O          4.83131000      6.76752000      1.37510000   
   195       O          4.83131000      6.76752000     24.96790000   
   196       O         21.51169000     19.57548000      1.37510000   
   197       O          4.83131000     19.57548000      1.37510000   
   198       O         21.51169000      6.76752000     24.96790000   
   199       O         21.51169000      6.76752000      1.37510000   
   200       O          4.83131000     19.57548000     24.96790000   
   201       O         11.79640000     21.51169000      6.40398000   
   202       O         14.54660000      4.83131000     19.93902000   
   203       O         11.79640000      4.83131000     19.93902000   
   204       O         14.54660000     21.51169000      6.40398000   
   205       O         14.54660000      4.83131000      6.40398000   
   206       O         11.79640000     21.51169000     19.93902000   
   207       O         14.54660000     21.51169000     19.93902000   
   208       O         11.79640000      4.83131000      6.40398000   
   209       O         19.57548000     11.79640000      8.34019000   
   210       O          6.76752000     14.54660000     18.00281000   
   211       O          6.76752000     11.79640000     18.00281000   
   212       O         19.57548000     14.54660000      8.34019000   
   213       O         19.57548000     14.54660000     18.00281000   
   214       O          6.76752000     11.79640000      8.34019000   
   215       O          6.76752000     14.54660000      8.34019000   
   216       O         19.57548000     11.79640000     18.00281000   
   217       O         19.57548000     21.51169000      1.37510000   
   218       O          6.76752000      4.83131000     24.96790000   
   219       O          6.76752000      4.83131000      1.37510000   
   220       O         19.57548000     21.51169000     24.96790000   
   221       O         19.57548000      4.83131000     24.96790000   
   222       O          6.76752000     21.51169000      1.37510000   
   223       O          6.76752000     21.51169000     24.96790000   
   224       O         19.57548000      4.83131000      1.37510000   
   225       O         21.51169000     11.79640000     19.93902000   
   226       O          4.83131000     14.54660000      6.40398000   
   227       O          4.83131000     11.79640000      6.40398000   
   228       O         21.51169000     14.54660000     19.93902000   
   229       O          4.83131000     14.54660000     19.93902000   
   230       O         21.51169000     11.79640000      6.40398000   
   231       O         21.51169000     14.54660000      6.40398000   
   232       O          4.83131000     11.79640000     19.93902000   
   233       O         11.79640000     19.57548000     18.00281000   
   234       O         14.54660000      6.76752000      8.34019000   
   235       O         11.79640000      6.76752000      8.34019000   
   236       O         14.54660000     19.57548000     18.00281000   
   237       O         14.54660000     19.57548000      8.34019000   
   238       O         11.79640000      6.76752000     18.00281000   
   239       O         14.54660000      6.76752000     18.00281000   
   240       O         11.79640000     19.57548000      8.34019000   
   241       C          7.81860000      5.35290000     24.53324000   
   242       C         18.52440000     20.99010000      1.80976000   
   243       C         18.52440000     20.99010000     24.53324000   
   244       C          7.81860000      5.35290000      1.80976000   
   245       C         18.52440000      5.35290000      1.80976000   
   246       C          7.81860000     20.99010000     24.53324000   
   247       C          7.81860000     20.99010000      1.80976000   
   248       C         18.52440000      5.35290000     24.53324000   
   249       C         24.53324000      7.81860000      5.35290000   
   250       C          1.80976000     18.52440000     20.99010000   
   251       C         24.53324000     18.52440000     20.99010000   
   252       C          1.80976000      7.81860000      5.35290000   
   253       C          1.80976000     18.52440000      5.35290000   
   254       C         24.53324000      7.81860000     20.99010000   
   255       C          1.80976000      7.81860000     20.99010000   
   256       C         24.53324000     18.52440000      5.35290000   
   257       C          5.35290000     24.53324000      7.81860000   
   258       C         20.99010000      1.80976000     18.52440000   
   259       C         20.99010000     24.53324000     18.52440000   
   260       C          5.35290000      1.80976000      7.81860000   
   261       C          5.35290000      1.80976000     18.52440000   
   262       C         20.99010000     24.53324000      7.81860000   
   263       C         20.99010000      1.80976000      7.81860000   
   264       C          5.35290000     24.53324000     18.52440000   
   265       C          5.35290000      7.81860000      1.80976000   
   266       C         20.99010000     18.52440000     24.53324000   
   267       C         20.99010000     18.52440000      1.80976000   
   268       C          5.35290000      7.81860000     24.53324000   
   269       C          5.35290000     18.52440000     24.53324000   
   270       C         20.99010000      7.81860000      1.80976000   
   271       C         20.99010000      7.81860000     24.53324000   
   272       C          5.35290000     18.52440000      1.80976000   
   273       C          7.81860000     24.53324000     20.99010000   
   274       C         18.52440000      1.80976000      5.35290000   
   275       C         18.52440000     24.53324000      5.35290000   
   276       C          7.81860000      1.80976000     20.99010000   
   277       C         18.52440000      1.80976000     20.99010000   
   278       C          7.81860000     24.53324000      5.35290000   
   279       C          7.81860000      1.80976000      5.35290000   
   280       C         18.52440000     24.53324000     20.99010000   
   281       C         24.53324000      5.35290000     18.52440000   
   282       C          1.80976000     20.99010000      7.81860000   
   283       C         24.53324000     20.99010000      7.81860000   
   284       C          1.80976000      5.35290000     18.52440000   
   285       C          1.80976000      5.35290000      7.81860000   
   286       C         24.53324000     20.99010000     18.52440000   
   287       C          1.80976000     20.99010000     18.52440000   
   288       C         24.53324000      5.35290000      7.81860000   
   289       C          7.81860000     18.52440000     11.36174000   
   290       C         18.52440000      7.81860000     14.98126000   
   291       C         18.52440000      7.81860000     11.36174000   
   292       C          7.81860000     18.52440000     14.98126000   
   293       C         18.52440000     18.52440000     14.98126000   
   294       C          7.81860000      7.81860000     11.36174000   
   295       C          7.81860000      7.81860000     14.98126000   
   296       C         18.52440000     18.52440000     11.36174000   
   297       C          5.35290000     11.36174000     20.99010000   
   298       C         20.99010000     14.98126000      5.35290000   
   299       C         20.99010000     11.36174000      5.35290000   
   300       C          5.35290000     14.98126000     20.99010000   
   301       C          5.35290000     14.98126000      5.35290000   
   302       C         20.99010000     11.36174000     20.99010000   
   303       C         20.99010000     14.98126000     20.99010000   
   304       C          5.35290000     11.36174000      5.35290000   
   305       C          5.35290000     20.99010000     14.98126000   
   306       C         20.99010000      5.35290000     11.36174000   
   307       C         20.99010000      5.35290000     14.98126000   
   308       C          5.35290000     20.99010000     11.36174000   
   309       C          5.35290000      5.35290000     11.36174000   
   310       C         20.99010000     20.99010000     14.98126000   
   311       C         20.99010000     20.99010000     11.36174000   
   312       C          5.35290000      5.35290000     14.98126000   
   313       C          7.81860000     11.36174000      7.81860000   
   314       C         18.52440000     14.98126000     18.52440000   
   315       C         18.52440000     11.36174000     18.52440000   
   316       C          7.81860000     14.98126000      7.81860000   
   317       C         18.52440000     14.98126000      7.81860000   
   318       C          7.81860000     11.36174000     18.52440000   
   319       C          7.81860000     14.98126000     18.52440000   
   320       C         18.52440000     11.36174000      7.81860000   
   321       C         11.36174000      7.81860000     18.52440000   
   322       C         14.98126000     18.52440000      7.81860000   
   323       C         11.36174000     18.52440000      7.81860000   
   324       C         14.98126000      7.81860000     18.52440000   
   325       C         14.98126000     18.52440000     18.52440000   
   326       C         11.36174000      7.81860000      7.81860000   
   327       C         14.98126000      7.81860000      7.81860000   
   328       C         11.36174000     18.52440000     18.52440000   
   329       C         11.36174000      5.35290000      5.35290000   
   330       C         14.98126000     20.99010000     20.99010000   
   331       C         11.36174000     20.99010000     20.99010000   
   332       C         14.98126000      5.35290000      5.35290000   
   333       C         14.98126000      5.35290000     20.99010000   
   334       C         11.36174000     20.99010000      5.35290000   
   335       C         14.98126000     20.99010000      5.35290000   
   336       C         11.36174000      5.35290000     20.99010000   
   337       C          8.48245000      4.68905000     23.36624000   
   338       C         17.86055000     21.65395000      2.97676000   
   339       C         17.86055000     21.65395000     23.36624000   
   340       C          8.48245000      4.68905000      2.97676000   
   341       C         17.86055000      4.68905000      2.97676000   
   342       C          8.48245000     21.65395000     23.36624000   
   343       C          8.48245000     21.65395000      2.97676000   
   344       C         17.86055000      4.68905000     23.36624000   
   345       C         23.36624000      8.48245000      4.68905000   
   346       C          2.97676000     17.86055000     21.65395000   
   347       C         23.36624000     17.86055000     21.65395000   
   348       C          2.97676000      8.48245000      4.68905000   
   349       C          2.97676000     17.86055000      4.68905000   
   350       C         23.36624000      8.48245000     21.65395000   
   351       C          2.97676000      8.48245000     21.65395000   
   352       C         23.36624000     17.86055000      4.68905000   
   353       C          4.68905000     23.36624000      8.48245000   
   354       C         21.65395000      2.97676000     17.86055000   
   355       C         21.65395000     23.36624000     17.86055000   
   356       C          4.68905000      2.97676000      8.48245000   
   357       C          4.68905000      2.97676000     17.86055000   
   358       C         21.65395000     23.36624000      8.48245000   
   359       C         21.65395000      2.97676000      8.48245000   
   360       C          4.68905000     23.36624000     17.86055000   
   361       C          4.68905000      8.48245000      2.97676000   
   362       C         21.65395000     17.86055000     23.36624000   
   363       C         21.65395000     17.86055000      2.97676000   
   364       C          4.68905000      8.48245000     23.36624000   
   365       C          4.68905000     17.86055000     23.36624000   
   366       C         21.65395000      8.48245000      2.97676000   
   367       C         21.65395000      8.48245000     23.36624000   
   368       C          4.68905000     17.86055000      2.97676000   
   369       C          8.48245000     23.36624000     21.65395000   
   370       C         17.86055000      2.97676000      4.68905000   
   371       C         17.86055000     23.36624000      4.68905000   
   372       C          8.48245000      2.97676000     21.65395000   
   373       C         17.86055000      2.97676000     21.65395000   
   374       C          8.48245000     23.36624000      4.68905000   
   375       C          8.48245000      2.97676000      4.68905000   
   376       C         17.86055000     23.36624000     21.65395000   
   377       C         23.36624000      4.68905000     17.86055000   
   378       C          2.97676000     21.65395000      8.48245000   
   379       C         23.36624000     21.65395000      8.48245000   
   380       C          2.97676000      4.68905000     17.86055000   
   381       C          2.97676000      4.68905000      8.48245000   
   382       C         23.36624000     21.65395000     17.86055000   
   383       C          2.97676000     21.65395000     17.86055000   
   384       C         23.36624000      4.68905000      8.48245000   
   385       C          8.48245000     17.86055000     10.19474000   
   386       C         17.86055000      8.48245000     16.14826000   
   387       C         17.86055000      8.48245000     10.19474000   
   388       C          8.48245000     17.86055000     16.14826000   
   389       C         17.86055000     17.86055000     16.14826000   
   390       C          8.48245000      8.48245000     10.19474000   
   391       C          8.48245000      8.48245000     16.14826000   
   392       C         17.86055000     17.86055000     10.19474000   
   393       C          4.68905000     10.19474000     21.65395000   
   394       C         21.65395000     16.14826000      4.68905000   
   395       C         21.65395000     10.19474000      4.68905000   
   396       C          4.68905000     16.14826000     21.65395000   
   397       C          4.68905000     16.14826000      4.68905000   
   398       C         21.65395000     10.19474000     21.65395000   
   399       C         21.65395000     16.14826000     21.65395000   
   400       C          4.68905000     10.19474000      4.68905000   
   401       C          4.68905000     21.65395000     16.14826000   
   402       C         21.65395000      4.68905000     10.19474000   
   403       C         21.65395000      4.68905000     16.14826000   
   404       C          4.68905000     21.65395000     10.19474000   
   405       C          4.68905000      4.68905000     10.19474000   
   406       C         21.65395000     21.65395000     16.14826000   
   407       C         21.65395000     21.65395000     10.19474000   
   408       C          4.68905000      4.68905000     16.14826000   
   409       C          8.48245000     10.19474000      8.48245000   
   410       C         17.86055000     16.14826000     17.86055000   
   411       C         17.86055000     10.19474000     17.86055000   
   412       C          8.48245000     16.14826000      8.48245000   
   413       C         17.86055000     16.14826000      8.48245000   
   414       C          8.48245000     10.19474000     17.86055000   
   415       C          8.48245000     16.14826000     17.86055000   
   416       C         17.86055000     10.19474000      8.48245000   
   417       C         10.19474000      8.48245000     17.86055000   
   418       C         16.14826000     17.86055000      8.48245000   
   419       C         10.19474000     17.86055000      8.48245000   
   420       C         16.14826000      8.48245000     17.86055000   
   421       C         16.14826000     17.86055000     17.86055000   
   422       C         10.19474000      8.48245000      8.48245000   
   423       C         16.14826000      8.48245000      8.48245000   
   424       C         10.19474000     17.86055000     17.86055000   
   425       C         10.19474000      4.68905000      4.68905000   
   426       C         16.14826000     21.65395000     21.65395000   
   427       C         10.19474000     21.65395000     21.65395000   
   428       C         16.14826000      4.68905000      4.68905000   
   429       C         16.14826000      4.68905000     21.65395000   
   430       C         10.19474000     21.65395000      4.68905000   
   431       C         16.14826000     21.65395000      4.68905000   
   432       C         10.19474000      4.68905000     21.65395000   
   433       C          9.62837000      5.25279000     22.79987000   
   434       C         16.71463000     21.09021000      3.54313000   
   435       C         16.71463000     21.09021000     22.79987000   
   436       C          9.62837000      5.25279000      3.54313000   
   437       C         16.71463000      5.25279000      3.54313000   
   438       C          9.62837000     21.09021000     22.79987000   
   439       C          9.62837000     21.09021000      3.54313000   
   440       C         16.71463000      5.25279000     22.79987000   
   441       C         22.79987000      9.62837000      5.25279000   
   442       C          3.54313000     16.71463000     21.09021000   
   443       C         22.79987000     16.71463000     21.09021000   
   444       C          3.54313000      9.62837000      5.25279000   
   445       C          3.54313000     16.71463000      5.25279000   
   446       C         22.79987000      9.62837000     21.09021000   
   447       C          3.54313000      9.62837000     21.09021000   
   448       C         22.79987000     16.71463000      5.25279000   
   449       C          5.25279000     22.79987000      9.62837000   
   450       C         21.09021000      3.54313000     16.71463000   
   451       C         21.09021000     22.79987000     16.71463000   
   452       C          5.25279000      3.54313000      9.62837000   
   453       C          5.25279000      3.54313000     16.71463000   
   454       C         21.09021000     22.79987000      9.62837000   
   455       C         21.09021000      3.54313000      9.62837000   
   456       C          5.25279000     22.79987000     16.71463000   
   457       C          5.25279000      9.62837000      3.54313000   
   458       C         21.09021000     16.71463000     22.79987000   
   459       C         21.09021000     16.71463000      3.54313000   
   460       C          5.25279000      9.62837000     22.79987000   
   461       C          5.25279000     16.71463000     22.79987000   
   462       C         21.09021000      9.62837000      3.54313000   
   463       C         21.09021000      9.62837000     22.79987000   
   464       C          5.25279000     16.71463000      3.54313000   
   465       C          9.62837000     22.79987000     21.09021000   
   466       C         16.71463000      3.54313000      5.25279000   
   467       C         16.71463000     22.79987000      5.25279000   
   468       C          9.62837000      3.54313000     21.09021000   
   469       C         16.71463000      3.54313000     21.09021000   
   470       C          9.62837000     22.79987000      5.25279000   
   471       C          9.62837000      3.54313000      5.25279000   
   472       C         16.71463000     22.79987000     21.09021000   
   473       C         22.79987000      5.25279000     16.71463000   
   474       C          3.54313000     21.09021000      9.62837000   
   475       C         22.79987000     21.09021000      9.62837000   
   476       C          3.54313000      5.25279000     16.71463000   
   477       C          3.54313000      5.25279000      9.62837000   
   478       C         22.79987000     21.09021000     16.71463000   
   479       C          3.54313000     21.09021000     16.71463000   
   480       C         22.79987000      5.25279000      9.62837000   
   481       C          9.62837000     18.42429000      9.62837000   
   482       C         16.71463000      7.91871000     16.71463000   
   483       C         16.71463000      7.91871000      9.62837000   
   484       C          9.62837000     18.42429000     16.71463000   
   485       C         16.71463000     18.42429000     16.71463000   
   486       C          9.62837000      7.91871000      9.62837000   
   487       C          9.62837000      7.91871000     16.71463000   
   488       C         16.71463000     18.42429000      9.62837000   
   489       C         22.79987000     22.79987000     18.42429000   
   490       C          3.54313000      3.54313000      7.91871000   
   491       C         22.79987000      3.54313000      7.91871000   
   492       C          3.54313000     22.79987000     18.42429000   
   493       C          3.54313000      3.54313000     18.42429000   
   494       C         22.79987000     22.79987000      7.91871000   
   495       C          3.54313000     22.79987000      7.91871000   
   496       C         22.79987000      3.54313000     18.42429000   
   497       C          9.62837000      9.62837000      7.91871000   
   498       C         16.71463000     16.71463000     18.42429000   
   499       C         16.71463000      9.62837000     18.42429000   
   500       C          9.62837000     16.71463000      7.91871000   
   501       C         16.71463000     16.71463000      7.91871000   
   502       C          9.62837000      9.62837000     18.42429000   
   503       C          9.62837000     16.71463000     18.42429000   
   504       C         16.71463000      9.62837000      7.91871000   
   505       C         22.79987000     18.42429000      3.54313000   
   506       C          3.54313000      7.91871000     22.79987000   
   507       C         22.79987000      7.91871000     22.79987000   
   508       C          3.54313000     18.42429000      3.54313000   
   509       C          3.54313000     18.42429000     22.79987000   
   510       C         22.79987000      7.91871000      3.54313000   
   511       C          3.54313000      7.91871000      3.54313000   
   512       C         22.79987000     18.42429000     22.79987000   
   513       C         18.42429000     22.79987000     22.79987000   
   514       C          7.91871000      3.54313000      3.54313000   
   515       C          7.91871000     22.79987000      3.54313000   
   516       C         18.42429000      3.54313000     22.79987000   
   517       C         18.42429000      3.54313000      3.54313000   
   518       C          7.91871000     22.79987000     22.79987000   
   519       C          7.91871000      3.54313000     22.79987000   
   520       C         18.42429000     22.79987000      3.54313000   
   521       C         18.42429000      9.62837000     16.71463000   
   522       C          7.91871000     16.71463000      9.62837000   
   523       C          7.91871000     16.71463000     16.71463000   
   524       C         18.42429000      9.62837000      9.62837000   
   525       C         18.42429000     16.71463000      9.62837000   
   526       C          7.91871000      9.62837000     16.71463000   
   527       C          7.91871000      9.62837000      9.62837000   
   528       C         18.42429000     16.71463000     16.71463000   
   529       H         10.01561000      6.00620000     23.18711000   
   530       H         16.32739000     20.33680000      3.15589000   
   531       H         16.32739000     20.33680000     23.18711000   
   532       H         10.01561000      6.00620000      3.15589000   
   533       H         16.32739000      6.00620000      3.15589000   
   534       H         10.01561000     20.33680000     23.18711000   
   535       H         10.01561000     20.33680000      3.15589000   
   536       H         16.32739000      6.00620000     23.18711000   
   537       H         23.18711000     10.01561000      6.00620000   
   538       H          3.15589000     16.32739000     20.33680000   
   539       H         23.18711000     16.32739000     20.33680000   
   540       H          3.15589000     10.01561000      6.00620000   
   541       H          3.15589000     16.32739000      6.00620000   
   542       H         23.18711000     10.01561000     20.33680000   
   543       H          3.15589000     10.01561000     20.33680000   
   544       H         23.18711000     16.32739000      6.00620000   
   545       H          6.00620000     23.18711000     10.01561000   
   546       H         20.33680000      3.15589000     16.32739000   
   547       H         20.33680000     23.18711000     16.32739000   
   548       H          6.00620000      3.15589000     10.01561000   
   549       H          6.00620000      3.15589000     16.32739000   
   550       H         20.33680000     23.18711000     10.01561000   
   551       H         20.33680000      3.15589000     10.01561000   
   552       H          6.00620000     23.18711000     16.32739000   
   553       H          6.00620000     10.01561000      3.15589000   
   554       H         20.33680000     16.32739000     23.18711000   
   555       H         20.33680000     16.32739000      3.15589000   
   556       H          6.00620000     10.01561000     23.18711000   
   557       H          6.00620000     16.32739000     23.18711000   
   558       H         20.33680000     10.01561000      3.15589000   
   559       H         20.33680000     10.01561000     23.18711000   
   560       H          6.00620000     16.32739000      3.15589000   
   561       H         10.01561000     23.18711000     20.33680000   
   562       H         16.32739000      3.15589000      6.00620000   
   563       H         16.32739000     23.18711000      6.00620000   
   564       H         10.01561000      3.15589000     20.33680000   
   565       H         16.32739000      3.15589000     20.33680000   
   566       H         10.01561000     23.18711000      6.00620000   
   567       H         10.01561000      3.15589000      6.00620000   
   568       H         16.32739000     23.18711000     20.33680000   
   569       H         23.18711000      6.00620000     16.32739000   
   570       H          3.15589000     20.33680000     10.01561000   
   571       H         23.18711000     20.33680000     10.01561000   
   572       H          3.15589000      6.00620000     16.32739000   
   573       H          3.15589000      6.00620000     10.01561000   
   574       H         23.18711000     20.33680000     16.32739000   
   575       H          3.15589000     20.33680000     16.32739000   
   576       H         23.18711000      6.00620000     10.01561000   
   577       H         10.01561000     19.17770000     10.01561000   
   578       H         16.32739000      7.16530000     16.32739000   
   579       H         16.32739000      7.16530000     10.01561000   
   580       H         10.01561000     19.17770000     16.32739000   
   581       H         16.32739000     19.17770000     16.32739000   
   582       H         10.01561000      7.16530000     10.01561000   
   583       H         10.01561000      7.16530000     16.32739000   
   584       H         16.32739000     19.17770000     10.01561000   
   585       H         23.18711000     23.18711000     19.17770000   
   586       H          3.15589000      3.15589000      7.16530000   
   587       H         23.18711000      3.15589000      7.16530000   
   588       H          3.15589000     23.18711000     19.17770000   
   589       H          3.15589000      3.15589000     19.17770000   
   590       H         23.18711000     23.18711000      7.16530000   
   591       H          3.15589000     23.18711000      7.16530000   
   592       H         23.18711000      3.15589000     19.17770000   
   593       H         10.01561000     10.01561000      7.16530000   
   594       H         16.32739000     16.32739000     19.17770000   
   595       H         16.32739000     10.01561000     19.17770000   
   596       H         10.01561000     16.32739000      7.16530000   
   597       H         16.32739000     16.32739000      7.16530000   
   598       H         10.01561000     10.01561000     19.17770000   
   599       H         10.01561000     16.32739000     19.17770000   
   600       H         16.32739000     10.01561000      7.16530000   
   601       H         23.18711000     19.17770000      3.15589000   
   602       H          3.15589000      7.16530000     23.18711000   
   603       H         23.18711000      7.16530000     23.18711000   
   604       H          3.15589000     19.17770000      3.15589000   
   605       H          3.15589000     19.17770000     23.18711000   
   606       H         23.18711000      7.16530000      3.15589000   
   607       H          3.15589000      7.16530000      3.15589000   
   608       H         23.18711000     19.17770000     23.18711000   
   609       H         19.17770000     23.18711000     23.18711000   
   610       H          7.16530000      3.15589000      3.15589000   
   611       H          7.16530000     23.18711000      3.15589000   
   612       H         19.17770000      3.15589000     23.18711000   
   613       H         19.17770000      3.15589000      3.15589000   
   614       H          7.16530000     23.18711000     23.18711000   
   615       H          7.16530000      3.15589000     23.18711000   
   616       H         19.17770000     23.18711000      3.15589000   
   617       H         19.17770000     10.01561000     16.32739000   
   618       H          7.16530000     16.32739000     10.01561000   
   619       H          7.16530000     16.32739000     16.32739000   
   620       H         19.17770000     10.01561000     10.01561000   
   621       H         19.17770000     16.32739000     10.01561000   
   622       H          7.16530000     10.01561000     16.32739000   
   623       H          7.16530000     10.01561000     10.01561000   
   624       H         19.17770000     16.32739000     16.32739000   
   625      Tv         26.34300000      0.00000000      0.00000000   
   626      Tv          0.00000000     26.34300000      0.00000000   
   627      Tv          0.00000000      0.00000000     26.34300000   
 

                   THE SYSTEM IS A SOLID


                UNIT CELL TRANSLATION VECTORS

              X                Y              Z
    T1 =    26.3430000      0.0000000      0.0000000
    T2 =     0.0000000     26.3430000      0.0000000
    T3 =     0.0000000      0.0000000     26.3430000


          CARTESIAN COORDINATES 

    NO.       ATOM           X           Y           Z

     1        Cu          7.5157      7.5157      0.0000
     2        Cu         18.8273     18.8273      0.0000
     3        Cu         18.8273      7.5157      0.0000
     4        Cu          7.5157     18.8273      0.0000
     5        Cu          0.0000      7.5157      7.5157
     6        Cu          0.0000     18.8273     18.8273
     7        Cu          0.0000     18.8273      7.5157
     8        Cu          0.0000      7.5157     18.8273
     9        Cu          7.5157      0.0000      7.5157
    10        Cu         18.8273      0.0000     18.8273
    11        Cu          7.5157      0.0000     18.8273
    12        Cu         18.8273      0.0000      7.5157
    13        Cu          7.5157     20.6872     13.1715
    14        Cu         18.8273      5.6558     13.1715
    15        Cu         18.8273     20.6872     13.1715
    16        Cu          7.5157      5.6558     13.1715
    17        Cu          0.0000     20.6872     20.6872
    18        Cu          0.0000      5.6558      5.6558
    19        Cu          0.0000      5.6558     20.6872
    20        Cu          0.0000     20.6872      5.6558
    21        Cu          7.5157     13.1715     20.6872
    22        Cu         18.8273     13.1715      5.6558
    23        Cu          7.5157     13.1715      5.6558
    24        Cu         18.8273     13.1715     20.6872
    25        Cu         20.6872      7.5157     13.1715
    26        Cu          5.6558     18.8273     13.1715
    27        Cu          5.6558      7.5157     13.1715
    28        Cu         20.6872     18.8273     13.1715
    29        Cu         13.1715      7.5157     20.6872
    30        Cu         13.1715     18.8273      5.6558
    31        Cu         13.1715     18.8273     20.6872
    32        Cu         13.1715      7.5157      5.6558
    33        Cu         20.6872      0.0000     20.6872
    34        Cu          5.6558      0.0000      5.6558
    35        Cu         20.6872      0.0000      5.6558
    36        Cu          5.6558      0.0000     20.6872
    37        Cu         20.6872     20.6872      0.0000
    38        Cu          5.6558      5.6558      0.0000
    39        Cu          5.6558     20.6872      0.0000
    40        Cu         20.6872      5.6558      0.0000
    41        Cu         13.1715     20.6872      7.5157
    42        Cu         13.1715      5.6558     18.8273
    43        Cu         13.1715      5.6558      7.5157
    44        Cu         13.1715     20.6872     18.8273
    45        Cu         20.6872     13.1715      7.5157
    46        Cu          5.6558     13.1715     18.8273
    47        Cu         20.6872     13.1715     18.8273
    48        Cu          5.6558     13.1715      7.5157
    49         O          8.3402      6.4040     24.9679
    50         O         18.0028     19.9390      1.3751
    51         O         18.0028     19.9390     24.9679
    52         O          8.3402      6.4040      1.3751
    53         O         18.0028      6.4040      1.3751
    54         O          8.3402     19.9390     24.9679
    55         O          8.3402     19.9390      1.3751
    56         O         18.0028      6.4040     24.9679
    57         O         24.9679      8.3402      6.4040
    58         O          1.3751     18.0028     19.9390
    59         O         24.9679     18.0028     19.9390
    60         O          1.3751      8.3402      6.4040
    61         O          1.3751     18.0028      6.4040
    62         O         24.9679      8.3402     19.9390
    63         O          1.3751      8.3402     19.9390
    64         O         24.9679     18.0028      6.4040
    65         O          6.4040     24.9679      8.3402
    66         O         19.9390      1.3751     18.0028
    67         O         19.9390     24.9679     18.0028
    68         O          6.4040      1.3751      8.3402
    69         O          6.4040      1.3751     18.0028
    70         O         19.9390     24.9679      8.3402
    71         O         19.9390      1.3751      8.3402
    72         O          6.4040     24.9679     18.0028
    73         O          6.4040      8.3402      1.3751
    74         O         19.9390     18.0028     24.9679
    75         O         19.9390     18.0028      1.3751
    76         O          6.4040      8.3402     24.9679
    77         O          6.4040     18.0028     24.9679
    78         O         19.9390      8.3402      1.3751
    79         O         19.9390      8.3402     24.9679
    80         O          6.4040     18.0028      1.3751
    81         O          8.3402     24.9679     19.9390
    82         O         18.0028      1.3751      6.4040
    83         O         18.0028     24.9679      6.4040
    84         O          8.3402      1.3751     19.9390
    85         O         18.0028      1.3751     19.9390
    86         O          8.3402     24.9679      6.4040
    87         O          8.3402      1.3751      6.4040
    88         O         18.0028     24.9679     19.9390
    89         O         24.9679      6.4040     18.0028
    90         O          1.3751     19.9390      8.3402
    91         O         24.9679     19.9390      8.3402
    92         O          1.3751      6.4040     18.0028
    93         O          1.3751      6.4040      8.3402
    94         O         24.9679     19.9390     18.0028
    95         O          1.3751     19.9390     18.0028
    96         O         24.9679      6.4040      8.3402
    97         O          8.3402     19.5755     11.7964
    98         O         18.0028      6.7675     14.5466
    99         O         18.0028      6.7675     11.7964
   100         O          8.3402     19.5755     14.5466
   101         O         18.0028     19.5755     14.5466
   102         O          8.3402      6.7675     11.7964
   103         O          8.3402      6.7675     14.5466
   104         O         18.0028     19.5755     11.7964
   105         O         24.9679     21.5117     19.5755
   106         O          1.3751      4.8313      6.7675
   107         O         24.9679      4.8313      6.7675
   108         O          1.3751     21.5117     19.5755
   109         O          1.3751      4.8313     19.5755
   110         O         24.9679     21.5117      6.7675
   111         O          1.3751     21.5117      6.7675
   112         O         24.9679      4.8313     19.5755
   113         O          6.4040     11.7964     21.5117
   114         O         19.9390     14.5466      4.8313
   115         O         19.9390     11.7964      4.8313
   116         O          6.4040     14.5466     21.5117
   117         O          6.4040     14.5466      4.8313
   118         O         19.9390     11.7964     21.5117
   119         O         19.9390     14.5466     21.5117
   120         O          6.4040     11.7964      4.8313
   121         O          6.4040     21.5117     14.5466
   122         O         19.9390      4.8313     11.7964
   123         O         19.9390      4.8313     14.5466
   124         O          6.4040     21.5117     11.7964
   125         O          6.4040      4.8313     11.7964
   126         O         19.9390     21.5117     14.5466
   127         O         19.9390     21.5117     11.7964
   128         O          6.4040      4.8313     14.5466
   129         O          8.3402     11.7964      6.7675
   130         O         18.0028     14.5466     19.5755
   131         O         18.0028     11.7964     19.5755
   132         O          8.3402     14.5466      6.7675
   133         O         18.0028     14.5466      6.7675
   134         O          8.3402     11.7964     19.5755
   135         O          8.3402     14.5466     19.5755
   136         O         18.0028     11.7964      6.7675
   137         O         24.9679     19.5755      4.8313
   138         O          1.3751      6.7675     21.5117
   139         O         24.9679      6.7675     21.5117
   140         O          1.3751     19.5755      4.8313
   141         O          1.3751     19.5755     21.5117
   142         O         24.9679      6.7675      4.8313
   143         O          1.3751      6.7675      4.8313
   144         O         24.9679     19.5755     21.5117
   145         O         21.5117      6.4040     11.7964
   146         O          4.8313     19.9390     14.5466
   147         O          4.8313     19.9390     11.7964
   148         O         21.5117      6.4040     14.5466
   149         O          4.8313      6.4040     14.5466
   150         O         21.5117     19.9390     11.7964
   151         O         21.5117     19.9390     14.5466
   152         O          4.8313      6.4040     11.7964
   153         O         11.7964      8.3402     19.5755
   154         O         14.5466     18.0028      6.7675
   155         O         11.7964     18.0028      6.7675
   156         O         14.5466      8.3402     19.5755
   157         O         14.5466     18.0028     19.5755
   158         O         11.7964      8.3402      6.7675
   159         O         14.5466      8.3402      6.7675
   160         O         11.7964     18.0028     19.5755
   161         O         19.5755     24.9679     21.5117
   162         O          6.7675      1.3751      4.8313
   163         O          6.7675     24.9679      4.8313
   164         O         19.5755      1.3751     21.5117
   165         O         19.5755      1.3751      4.8313
   166         O          6.7675     24.9679     21.5117
   167         O          6.7675      1.3751     21.5117
   168         O         19.5755     24.9679      4.8313
   169         O         19.5755      8.3402     14.5466
   170         O          6.7675     18.0028     11.7964
   171         O          6.7675     18.0028     14.5466
   172         O         19.5755      8.3402     11.7964
   173         O         19.5755     18.0028     11.7964
   174         O          6.7675      8.3402     14.5466
   175         O          6.7675      8.3402     11.7964
   176         O         19.5755     18.0028     14.5466
   177         O         21.5117     24.9679      6.7675
   178         O          4.8313      1.3751     19.5755
   179         O          4.8313     24.9679     19.5755
   180         O         21.5117      1.3751      6.7675
   181         O          4.8313      1.3751      6.7675
   182         O         21.5117     24.9679     19.5755
   183         O         21.5117      1.3751     19.5755
   184         O          4.8313     24.9679      6.7675
   185         O         11.7964      6.4040      4.8313
   186         O         14.5466     19.9390     21.5117
   187         O         11.7964     19.9390     21.5117
   188         O         14.5466      6.4040      4.8313
   189         O         14.5466      6.4040     21.5117
   190         O         11.7964     19.9390      4.8313
   191         O         14.5466     19.9390      4.8313
   192         O         11.7964      6.4040     21.5117
   193         O         21.5117     19.5755     24.9679
   194         O          4.8313      6.7675      1.3751
   195         O          4.8313      6.7675     24.9679
   196         O         21.5117     19.5755      1.3751
   197         O          4.8313     19.5755      1.3751
   198         O         21.5117      6.7675     24.9679
   199         O         21.5117      6.7675      1.3751
   200         O          4.8313     19.5755     24.9679
   201         O         11.7964     21.5117      6.4040
   202         O         14.5466      4.8313     19.9390
   203         O         11.7964      4.8313     19.9390
   204         O         14.5466     21.5117      6.4040
   205         O         14.5466      4.8313      6.4040
   206         O         11.7964     21.5117     19.9390
   207         O         14.5466     21.5117     19.9390
   208         O         11.7964      4.8313      6.4040
   209         O         19.5755     11.7964      8.3402
   210         O          6.7675     14.5466     18.0028
   211         O          6.7675     11.7964     18.0028
   212         O         19.5755     14.5466      8.3402
   213         O         19.5755     14.5466     18.0028
   214         O          6.7675     11.7964      8.3402
   215         O          6.7675     14.5466      8.3402
   216         O         19.5755     11.7964     18.0028
   217         O         19.5755     21.5117      1.3751
   218         O          6.7675      4.8313     24.9679
   219         O          6.7675      4.8313      1.3751
   220         O         19.5755     21.5117     24.9679
   221         O         19.5755      4.8313     24.9679
   222         O          6.7675     21.5117      1.3751
   223         O          6.7675     21.5117     24.9679
   224         O         19.5755      4.8313      1.3751
   225         O         21.5117     11.7964     19.9390
   226         O          4.8313     14.5466      6.4040
   227         O          4.8313     11.7964      6.4040
   228         O         21.5117     14.5466     19.9390
   229         O          4.8313     14.5466     19.9390
   230         O         21.5117     11.7964      6.4040
   231         O         21.5117     14.5466      6.4040
   232         O          4.8313     11.7964     19.9390
   233         O         11.7964     19.5755     18.0028
   234         O         14.5466      6.7675      8.3402
   235         O         11.7964      6.7675      8.3402
   236         O         14.5466     19.5755     18.0028
   237         O         14.5466     19.5755      8.3402
   238         O         11.7964      6.7675     18.0028
   239         O         14.5466      6.7675     18.0028
   240         O         11.7964     19.5755      8.3402
   241         C          7.8186      5.3529     24.5332
   242         C         18.5244     20.9901      1.8098
   243         C         18.5244     20.9901     24.5332
   244         C          7.8186      5.3529      1.8098
   245         C         18.5244      5.3529      1.8098
   246         C          7.8186     20.9901     24.5332
   247         C          7.8186     20.9901      1.8098
   248         C         18.5244      5.3529     24.5332
   249         C         24.5332      7.8186      5.3529
   250         C          1.8098     18.5244     20.9901
   251         C         24.5332     18.5244     20.9901
   252         C          1.8098      7.8186      5.3529
   253         C          1.8098     18.5244      5.3529
   254         C         24.5332      7.8186     20.9901
   255         C          1.8098      7.8186     20.9901
   256         C         24.5332     18.5244      5.3529
   257         C          5.3529     24.5332      7.8186
   258         C         20.9901      1.8098     18.5244
   259         C         20.9901     24.5332     18.5244
   260         C          5.3529      1.8098      7.8186
   261         C          5.3529      1.8098     18.5244
   262         C         20.9901     24.5332      7.8186
   263         C         20.9901      1.8098      7.8186
   264         C          5.3529     24.5332     18.5244
   265         C          5.3529      7.8186      1.8098
   266         C         20.9901     18.5244     24.5332
   267         C         20.9901     18.5244      1.8098
   268         C          5.3529      7.8186     24.5332
   269         C          5.3529     18.5244     24.5332
   270         C         20.9901      7.8186      1.8098
   271         C         20.9901      7.8186     24.5332
   272         C          5.3529     18.5244      1.8098
   273         C          7.8186     24.5332     20.9901
   274         C         18.5244      1.8098      5.3529
   275         C         18.5244     24.5332      5.3529
   276         C          7.8186      1.8098     20.9901
   277         C         18.5244      1.8098     20.9901
   278         C          7.8186     24.5332      5.3529
   279         C          7.8186      1.8098      5.3529
   280         C         18.5244     24.5332     20.9901
   281         C         24.5332      5.3529     18.5244
   282         C          1.8098     20.9901      7.8186
   283         C         24.5332     20.9901      7.8186
   284         C          1.8098      5.3529     18.5244
   285         C          1.8098      5.3529      7.8186
   286         C         24.5332     20.9901     18.5244
   287         C          1.8098     20.9901     18.5244
   288         C         24.5332      5.3529      7.8186
   289         C          7.8186     18.5244     11.3617
   290         C         18.5244      7.8186     14.9813
   291         C         18.5244      7.8186     11.3617
   292         C          7.8186     18.5244     14.9813
   293         C         18.5244     18.5244     14.9813
   294         C          7.8186      7.8186     11.3617
   295         C          7.8186      7.8186     14.9813
   296         C         18.5244     18.5244     11.3617
   297         C          5.3529     11.3617     20.9901
   298         C         20.9901     14.9813      5.3529
   299         C         20.9901     11.3617      5.3529
   300         C          5.3529     14.9813     20.9901
   301         C          5.3529     14.9813      5.3529
   302         C         20.9901     11.3617     20.9901
   303         C         20.9901     14.9813     20.9901
   304         C          5.3529     11.3617      5.3529
   305         C          5.3529     20.9901     14.9813
   306         C         20.9901      5.3529     11.3617
   307         C         20.9901      5.3529     14.9813
   308         C          5.3529     20.9901     11.3617
   309         C          5.3529      5.3529     11.3617
   310         C         20.9901     20.9901     14.9813
   311         C         20.9901     20.9901     11.3617
   312         C          5.3529      5.3529     14.9813
   313         C          7.8186     11.3617      7.8186
   314         C         18.5244     14.9813     18.5244
   315         C         18.5244     11.3617     18.5244
   316         C          7.8186     14.9813      7.8186
   317         C         18.5244     14.9813      7.8186
   318         C          7.8186     11.3617     18.5244
   319         C          7.8186     14.9813     18.5244
   320         C         18.5244     11.3617      7.8186
   321         C         11.3617      7.8186     18.5244
   322         C         14.9813     18.5244      7.8186
   323         C         11.3617     18.5244      7.8186
   324         C         14.9813      7.8186     18.5244
   325         C         14.9813     18.5244     18.5244
   326         C         11.3617      7.8186      7.8186
   327         C         14.9813      7.8186      7.8186
   328         C         11.3617     18.5244     18.5244
   329         C         11.3617      5.3529      5.3529
   330         C         14.9813     20.9901     20.9901
   331         C         11.3617     20.9901     20.9901
   332         C         14.9813      5.3529      5.3529
   333         C         14.9813      5.3529     20.9901
   334         C         11.3617     20.9901      5.3529
   335         C         14.9813     20.9901      5.3529
   336         C         11.3617      5.3529     20.9901
   337         C          8.4825      4.6890     23.3662
   338         C         17.8605     21.6540      2.9768
   339         C         17.8605     21.6540     23.3662
   340         C          8.4825      4.6890      2.9768
   341         C         17.8605      4.6890      2.9768
   342         C          8.4825     21.6540     23.3662
   343         C          8.4825     21.6540      2.9768
   344         C         17.8605      4.6890     23.3662
   345         C         23.3662      8.4825      4.6890
   346         C          2.9768     17.8605     21.6540
   347         C         23.3662     17.8605     21.6540
   348         C          2.9768      8.4825      4.6890
   349         C          2.9768     17.8605      4.6890
   350         C         23.3662      8.4825     21.6540
   351         C          2.9768      8.4825     21.6540
   352         C         23.3662     17.8605      4.6890
   353         C          4.6890     23.3662      8.4825
   354         C         21.6540      2.9768     17.8605
   355         C         21.6540     23.3662     17.8605
   356         C          4.6890      2.9768      8.4825
   357         C          4.6890      2.9768     17.8605
   358         C         21.6540     23.3662      8.4825
   359         C         21.6540      2.9768      8.4825
   360         C          4.6890     23.3662     17.8605
   361         C          4.6890      8.4825      2.9768
   362         C         21.6540     17.8605     23.3662
   363         C         21.6540     17.8605      2.9768
   364         C          4.6890      8.4825     23.3662
   365         C          4.6890     17.8605     23.3662
   366         C         21.6540      8.4825      2.9768
   367         C         21.6540      8.4825     23.3662
   368         C          4.6890     17.8605      2.9768
   369         C          8.4825     23.3662     21.6540
   370         C         17.8605      2.9768      4.6890
   371         C         17.8605     23.3662      4.6890
   372         C          8.4825      2.9768     21.6540
   373         C         17.8605      2.9768     21.6540
   374         C          8.4825     23.3662      4.6890
   375         C          8.4825      2.9768      4.6890
   376         C         17.8605     23.3662     21.6540
   377         C         23.3662      4.6890     17.8605
   378         C          2.9768     21.6540      8.4825
   379         C         23.3662     21.6540      8.4825
   380         C          2.9768      4.6890     17.8605
   381         C          2.9768      4.6890      8.4825
   382         C         23.3662     21.6540     17.8605
   383         C          2.9768     21.6540     17.8605
   384         C         23.3662      4.6890      8.4825
   385         C          8.4825     17.8605     10.1947
   386         C         17.8605      8.4825     16.1483
   387         C         17.8605      8.4825     10.1947
   388         C          8.4825     17.8605     16.1483
   389         C         17.8605     17.8605     16.1483
   390         C          8.4825      8.4825     10.1947
   391         C          8.4825      8.4825     16.1483
   392         C         17.8605     17.8605     10.1947
   393         C          4.6890     10.1947     21.6540
   394         C         21.6540     16.1483      4.6890
   395         C         21.6540     10.1947      4.6890
   396         C          4.6890     16.1483     21.6540
   397         C          4.6890     16.1483      4.6890
   398         C         21.6540     10.1947     21.6540
   399         C         21.6540     16.1483     21.6540
   400         C          4.6890     10.1947      4.6890
   401         C          4.6890     21.6540     16.1483
   402         C         21.6540      4.6890     10.1947
   403         C         21.6540      4.6890     16.1483
   404         C          4.6890     21.6540     10.1947
   405         C          4.6890      4.6890     10.1947
   406         C         21.6540     21.6540     16.1483
   407         C         21.6540     21.6540     10.1947
   408         C          4.6890      4.6890     16.1483
   409         C          8.4825     10.1947      8.4825
   410         C         17.8605     16.1483     17.8605
   411         C         17.8605     10.1947     17.8605
   412         C          8.4825     16.1483      8.4825
   413         C         17.8605     16.1483      8.4825
   414         C          8.4825     10.1947     17.8605
   415         C          8.4825     16.1483     17.8605
   416         C         17.8605     10.1947      8.4825
   417         C         10.1947      8.4825     17.8605
   418         C         16.1483     17.8605      8.4825
   419         C         10.1947     17.8605      8.4825
   420         C         16.1483      8.4825     17.8605
   421         C         16.1483     17.8605     17.8605
   422         C         10.1947      8.4825      8.4825
   423         C         16.1483      8.4825      8.4825
   424         C         10.1947     17.8605     17.8605
   425         C         10.1947      4.6890      4.6890
   426         C         16.1483     21.6540     21.6540
   427         C         10.1947     21.6540     21.6540
   428         C         16.1483      4.6890      4.6890
   429         C         16.1483      4.6890     21.6540
   430         C         10.1947     21.6540      4.6890
   431         C         16.1483     21.6540      4.6890
   432         C         10.1947      4.6890     21.6540
   433         C          9.6284      5.2528     22.7999
   434         C         16.7146     21.0902      3.5431
   435         C         16.7146     21.0902     22.7999
   436         C          9.6284      5.2528      3.5431
   437         C         16.7146      5.2528      3.5431
   438         C          9.6284     21.0902     22.7999
   439         C          9.6284     21.0902      3.5431
   440         C         16.7146      5.2528     22.7999
   441         C         22.7999      9.6284      5.2528
   442         C          3.5431     16.7146     21.0902
   443         C         22.7999     16.7146     21.0902
   444         C          3.5431      9.6284      5.2528
   445         C          3.5431     16.7146      5.2528
   446         C         22.7999      9.6284     21.0902
   447         C          3.5431      9.6284     21.0902
   448         C         22.7999     16.7146      5.2528
   449         C          5.2528     22.7999      9.6284
   450         C         21.0902      3.5431     16.7146
   451         C         21.0902     22.7999     16.7146
   452         C          5.2528      3.5431      9.6284
   453         C          5.2528      3.5431     16.7146
   454         C         21.0902     22.7999      9.6284
   455         C         21.0902      3.5431      9.6284
   456         C          5.2528     22.7999     16.7146
   457         C          5.2528      9.6284      3.5431
   458         C         21.0902     16.7146     22.7999
   459         C         21.0902     16.7146      3.5431
   460         C          5.2528      9.6284     22.7999
   461         C          5.2528     16.7146     22.7999
   462         C         21.0902      9.6284      3.5431
   463         C         21.0902      9.6284     22.7999
   464         C          5.2528     16.7146      3.5431
   465         C          9.6284     22.7999     21.0902
   466         C         16.7146      3.5431      5.2528
   467         C         16.7146     22.7999      5.2528
   468         C          9.6284      3.5431     21.0902
   469         C         16.7146      3.5431     21.0902
   470         C          9.6284     22.7999      5.2528
   471         C          9.6284      3.5431      5.2528
   472         C         16.7146     22.7999     21.0902
   473         C         22.7999      5.2528     16.7146
   474         C          3.5431     21.0902      9.6284
   475         C         22.7999     21.0902      9.6284
   476         C          3.5431      5.2528     16.7146
   477         C          3.5431      5.2528      9.6284
   478         C         22.7999     21.0902     16.7146
   479         C          3.5431     21.0902     16.7146
   480         C         22.7999      5.2528      9.6284
   481         C          9.6284     18.4243      9.6284
   482         C         16.7146      7.9187     16.7146
   483         C         16.7146      7.9187      9.6284
   484         C          9.6284     18.4243     16.7146
   485         C         16.7146     18.4243     16.7146
   486         C          9.6284      7.9187      9.6284
   487         C          9.6284      7.9187     16.7146
   488         C         16.7146     18.4243      9.6284
   489         C         22.7999     22.7999     18.4243
   490         C          3.5431      3.5431      7.9187
   491         C         22.7999      3.5431      7.9187
   492         C          3.5431     22.7999     18.4243
   493         C          3.5431      3.5431     18.4243
   494         C         22.7999     22.7999      7.9187
   495         C          3.5431     22.7999      7.9187
   496         C         22.7999      3.5431     18.4243
   497         C          9.6284      9.6284      7.9187
   498         C         16.7146     16.7146     18.4243
   499         C         16.7146      9.6284     18.4243
   500         C          9.6284     16.7146      7.9187
   501         C         16.7146     16.7146      7.9187
   502         C          9.6284      9.6284     18.4243
   503         C          9.6284     16.7146     18.4243
   504         C         16.7146      9.6284      7.9187
   505         C         22.7999     18.4243      3.5431
   506         C          3.5431      7.9187     22.7999
   507         C         22.7999      7.9187     22.7999
   508         C          3.5431     18.4243      3.5431
   509         C          3.5431     18.4243     22.7999
   510         C         22.7999      7.9187      3.5431
   511         C          3.5431      7.9187      3.5431
   512         C         22.7999     18.4243     22.7999
   513         C         18.4243     22.7999     22.7999
   514         C          7.9187      3.5431      3.5431
   515         C          7.9187     22.7999      3.5431
   516         C         18.4243      3.5431     22.7999
   517         C         18.4243      3.5431      3.5431
   518         C          7.9187     22.7999     22.7999
   519         C          7.9187      3.5431     22.7999
   520         C         18.4243     22.7999      3.5431
   521         C         18.4243      9.6284     16.7146
   522         C          7.9187     16.7146      9.6284
   523         C          7.9187     16.7146     16.7146
   524         C         18.4243      9.6284      9.6284
   525         C         18.4243     16.7146      9.6284
   526         C          7.9187      9.6284     16.7146
   527         C          7.9187      9.6284      9.6284
   528         C         18.4243     16.7146     16.7146
   529         H         10.0156      6.0062     23.1871
   530         H         16.3274     20.3368      3.1559
   531         H         16.3274     20.3368     23.1871
   532         H         10.0156      6.0062      3.1559
   533         H         16.3274      6.0062      3.1559
   534         H         10.0156     20.3368     23.1871
   535         H         10.0156     20.3368      3.1559
   536         H         16.3274      6.0062     23.1871
   537         H         23.1871     10.0156      6.0062
   538         H          3.1559     16.3274     20.3368
   539         H         23.1871     16.3274     20.3368
   540         H          3.1559     10.0156      6.0062
   541         H          3.1559     16.3274      6.0062
   542         H         23.1871     10.0156     20.3368
   543         H          3.1559     10.0156     20.3368
   544         H         23.1871     16.3274      6.0062
   545         H          6.0062     23.1871     10.0156
   546         H         20.3368      3.1559     16.3274
   547         H         20.3368     23.1871     16.3274
   548         H          6.0062      3.1559     10.0156
   549         H          6.0062      3.1559     16.3274
   550         H         20.3368     23.1871     10.0156
   551         H         20.3368      3.1559     10.0156
   552         H          6.0062     23.1871     16.3274
   553         H          6.0062     10.0156      3.1559
   554         H         20.3368     16.3274     23.1871
   555         H         20.3368     16.3274      3.1559
   556         H          6.0062     10.0156     23.1871
   557         H          6.0062     16.3274     23.1871
   558         H         20.3368     10.0156      3.1559
   559         H         20.3368     10.0156     23.1871
   560         H          6.0062     16.3274      3.1559
   561         H         10.0156     23.1871     20.3368
   562         H         16.3274      3.1559      6.0062
   563         H         16.3274     23.1871      6.0062
   564         H         10.0156      3.1559     20.3368
   565         H         16.3274      3.1559     20.3368
   566         H         10.0156     23.1871      6.0062
   567         H         10.0156      3.1559      6.0062
   568         H         16.3274     23.1871     20.3368
   569         H         23.1871      6.0062     16.3274
   570         H          3.1559     20.3368     10.0156
   571         H         23.1871     20.3368     10.0156
   572         H          3.1559      6.0062     16.3274
   573         H          3.1559      6.0062     10.0156
   574         H         23.1871     20.3368     16.3274
   575         H          3.1559     20.3368     16.3274
   576         H         23.1871      6.0062     10.0156
   577         H         10.0156     19.1777     10.0156
[...]
  172  O   1.86545   1.47338   1.71618   1.76619
  173  O   1.86554   1.47274   1.71560   1.76575
  174  O   1.86545   1.47338   1.71617   1.76621
  175  O   1.86545   1.47338   1.71617   1.76621
  176  O   1.86554   1.47274   1.71560   1.76575
  177  O   1.86545   1.71617   1.76619   1.47337
  178  O   1.86545   1.71618   1.76621   1.47339
  179  O   1.86544   1.71618   1.76622   1.47340
  180  O   1.86545   1.71617   1.76623   1.47339
  181  O   1.86545   1.71618   1.76619   1.47338
  182  O   1.86545   1.71617   1.76621   1.47338
  183  O   1.86544   1.71618   1.76622   1.47339
  184  O   1.86545   1.71617   1.76622   1.47338
  185  O   1.86545   1.76622   1.47338   1.71617
  186  O   1.86545   1.76622   1.47339   1.71617
  187  O   1.86545   1.76620   1.47338   1.71618
  188  O   1.86545   1.76620   1.47338   1.71617
  189  O   1.86539   1.76681   1.47374   1.71638
  190  O   1.86545   1.76620   1.47339   1.71618
  191  O   1.86545   1.76622   1.47338   1.71617
  192  O   1.86539   1.76683   1.47375   1.71638
  193  O   1.86545   1.71617   1.47337   1.76621
  194  O   1.86545   1.71617   1.47338   1.76621
  195  O   1.86545   1.71618   1.47339   1.76621
  196  O   1.86545   1.71618   1.47339   1.76621
  197  O   1.86545   1.71617   1.47338   1.76621
  198  O   1.86545   1.71618   1.47338   1.76620
  199  O   1.86544   1.71618   1.47340   1.76623
  200  O   1.86545   1.71617   1.47338   1.76620
  201  O   1.86545   1.76621   1.71617   1.47338
  202  O   1.86541   1.76672   1.71625   1.47360
  203  O   1.86541   1.76672   1.71624   1.47359
  204  O   1.86545   1.76620   1.71617   1.47338
  205  O   1.86545   1.76622   1.71617   1.47339
  206  O   1.86545   1.76623   1.71617   1.47339
  207  O   1.86545   1.76619   1.71618   1.47338
  208  O   1.86545   1.76620   1.71618   1.47338
  209  O   1.86545   1.47338   1.76620   1.71618
  210  O   1.86542   1.47355   1.76631   1.71632
  211  O   1.86542   1.47355   1.76632   1.71632
  212  O   1.86545   1.47338   1.76622   1.71617
  213  O   1.86556   1.47262   1.76602   1.71535
  214  O   1.86545   1.47338   1.76623   1.71617
  215  O   1.86545   1.47339   1.76619   1.71618
  216  O   1.86556   1.47262   1.76602   1.71536
  217  O   1.86545   1.47338   1.71618   1.76621
  218  O   1.86545   1.47338   1.71617   1.76621
  219  O   1.86545   1.47338   1.71617   1.76621
  220  O   1.86545   1.47339   1.71618   1.76621
  221  O   1.86544   1.47339   1.71618   1.76623
  222  O   1.86545   1.47338   1.71617   1.76620
  223  O   1.86545   1.47338   1.71617   1.76622
  224  O   1.86545   1.47339   1.71619   1.76620
  225  O   1.86556   1.71536   1.76603   1.47263
  226  O   1.86545   1.71617   1.76622   1.47338
  227  O   1.86545   1.71618   1.76619   1.47338
  228  O   1.86556   1.71536   1.76602   1.47262
  229  O   1.86542   1.71632   1.76632   1.47355
  230  O   1.86545   1.71617   1.76623   1.47339
  231  O   1.86545   1.71618   1.76619   1.47338
  232  O   1.86542   1.71632   1.76631   1.47355
  233  O   1.86545   1.76619   1.47338   1.71618
  234  O   1.86545   1.76620   1.47338   1.71618
  235  O   1.86545   1.76622   1.47339   1.71617
  236  O   1.86545   1.76623   1.47338   1.71617
  237  O   1.86545   1.76621   1.47338   1.71618
  238  O   1.86541   1.76672   1.47360   1.71625
  239  O   1.86541   1.76672   1.47358   1.71623
  240  O   1.86545   1.76620   1.47338   1.71617
  241  C   1.07172   0.68454   0.68454   0.71993
  242  C   1.07172   0.68454   0.68454   0.71994
  243  C   1.07172   0.68454   0.68454   0.71994
  244  C   1.07172   0.68454   0.68454   0.71994
  245  C   1.07172   0.68454   0.68454   0.71994
  246  C   1.07172   0.68454   0.68454   0.71994
  247  C   1.07172   0.68454   0.68454   0.71994
  248  C   1.07172   0.68453   0.68454   0.71993
  249  C   1.07172   0.71994   0.68455   0.68454
  250  C   1.07172   0.71994   0.68455   0.68454
  251  C   1.07172   0.71993   0.68453   0.68454
  252  C   1.07172   0.71994   0.68454   0.68454
  253  C   1.07172   0.71994   0.68454   0.68454
  254  C   1.07172   0.71993   0.68454   0.68454
  255  C   1.07172   0.71994   0.68454   0.68455
  256  C   1.07172   0.71994   0.68454   0.68455
  257  C   1.07172   0.68454   0.71994   0.68454
  258  C   1.07172   0.68454   0.71994   0.68454
  259  C   1.07173   0.68454   0.71994   0.68454
  260  C   1.07172   0.68454   0.71994   0.68455
  261  C   1.07172   0.68454   0.71994   0.68454
  262  C   1.07172   0.68454   0.71994   0.68455
  263  C   1.07172   0.68454   0.71994   0.68454
  264  C   1.07172   0.68454   0.71994   0.68454
  265  C   1.07172   0.68454   0.68454   0.71994
  266  C   1.07172   0.68454   0.68454   0.71994
  267  C   1.07172   0.68454   0.68454   0.71994
  268  C   1.07172   0.68454   0.68454   0.71994
  269  C   1.07172   0.68454   0.68454   0.71994
  270  C   1.07172   0.68454   0.68454   0.71994
  271  C   1.07172   0.68453   0.68454   0.71994
  272  C   1.07172   0.68454   0.68454   0.71994
  273  C   1.07172   0.68454   0.71994   0.68455
  274  C   1.07172   0.68454   0.71994   0.68454
  275  C   1.07172   0.68454   0.71994   0.68455
  276  C   1.07172   0.68454   0.71994   0.68454
  277  C   1.07172   0.68454   0.71993   0.68454
  278  C   1.07172   0.68454   0.71994   0.68454
  279  C   1.07172   0.68454   0.71994   0.68455
  280  C   1.07172   0.68454   0.71994   0.68455
  281  C   1.07172   0.71994   0.68455   0.68454
  282  C   1.07172   0.71994   0.68454   0.68454
  283  C   1.07172   0.71994   0.68454   0.68454
  284  C   1.07172   0.71994   0.68454   0.68454
  285  C   1.07172   0.71994   0.68454   0.68455
  286  C   1.07172   0.71994   0.68454   0.68455
  287  C   1.07172   0.71994   0.68454   0.68454
  288  C   1.07172   0.71994   0.68454   0.68454
  289  C   1.07172   0.68451   0.68458   0.71994
  290  C   1.07172   0.68453   0.68453   0.71993
  291  C   1.07172   0.68455   0.68454   0.71994
  292  C   1.07172   0.68451   0.68458   0.71994
  293  C   1.07172   0.68467   0.68443   0.71994
  294  C   1.07172   0.68454   0.68454   0.71994
  295  C   1.07172   0.68454   0.68454   0.71993
  296  C   1.07172   0.68467   0.68443   0.71995
  297  C   1.07172   0.68458   0.71994   0.68452
  298  C   1.07172   0.68454   0.71994   0.68455
  299  C   1.07172   0.68455   0.71994   0.68454
  300  C   1.07172   0.68458   0.71994   0.68451
  301  C   1.07172   0.68454   0.71994   0.68454
  302  C   1.07165   0.68409   0.71983   0.68450
  303  C   1.07165   0.68410   0.71983   0.68450
  304  C   1.07172   0.68454   0.71994   0.68454
  305  C   1.07172   0.68458   0.68451   0.71994
  306  C   1.07172   0.68455   0.68454   0.71994
  307  C   1.07172   0.68454   0.68454   0.71994
  308  C   1.07172   0.68458   0.68451   0.71994
  309  C   1.07172   0.68454   0.68454   0.71994
  310  C   1.07172   0.68443   0.68467   0.71995
  311  C   1.07172   0.68443   0.68467   0.71995
  312  C   1.07172   0.68454   0.68454   0.71994
  313  C   1.07172   0.68454   0.71994   0.68454
  314  C   1.07165   0.68450   0.71983   0.68410
  315  C   1.07165   0.68449   0.71982   0.68409
  316  C   1.07172   0.68454   0.71994   0.68454
  317  C   1.07172   0.68454   0.71994   0.68455
  318  C   1.07172   0.68451   0.71994   0.68458
  319  C   1.07172   0.68452   0.71994   0.68458
  320  C   1.07172   0.68454   0.71994   0.68454
  321  C   1.07165   0.71982   0.68430   0.68428
  322  C   1.07172   0.71995   0.68454   0.68455
  323  C   1.07172   0.71994   0.68454   0.68454
  324  C   1.07165   0.71982   0.68430   0.68426
  325  C   1.07173   0.71994   0.68454   0.68454
  326  C   1.07172   0.71994   0.68454   0.68454
  327  C   1.07172   0.71994   0.68454   0.68454
  328  C   1.07172   0.71994   0.68454   0.68454
  329  C   1.07172   0.71994   0.68454   0.68455
  330  C   1.07172   0.71994   0.68454   0.68454
  331  C   1.07172   0.71994   0.68454   0.68454
  332  C   1.07172   0.71994   0.68454   0.68454
  333  C   1.07165   0.71982   0.68427   0.68430
  334  C   1.07172   0.71994   0.68454   0.68454
  335  C   1.07172   0.71994   0.68454   0.68454
  336  C   1.07165   0.71982   0.68427   0.68430
  337  C   1.07708   1.04923   1.04923   1.06152
  338  C   1.07708   1.04920   1.04920   1.06150
  339  C   1.07708   1.04920   1.04920   1.06150
  340  C   1.07708   1.04921   1.04921   1.06150
  341  C   1.07708   1.04920   1.04921   1.06150
  342  C   1.07708   1.04921   1.04921   1.06150
  343  C   1.07708   1.04921   1.04921   1.06150
  344  C   1.07708   1.04923   1.04922   1.06151
  345  C   1.07709   1.06151   1.04921   1.04921
  346  C   1.07709   1.06151   1.04921   1.04921
  347  C   1.07707   1.06150   1.04921   1.04921
  348  C   1.07708   1.06150   1.04921   1.04921
  349  C   1.07708   1.06150   1.04921   1.04921
  350  C   1.07708   1.06150   1.04920   1.04921
  351  C   1.07709   1.06151   1.04921   1.04921
  352  C   1.07708   1.06151   1.04921   1.04921
  353  C   1.07708   1.04920   1.06149   1.04920
  354  C   1.07708   1.04921   1.06150   1.04921
  355  C   1.07709   1.04921   1.06149   1.04921
  356  C   1.07708   1.04921   1.06150   1.04921
  357  C   1.07708   1.04921   1.06150   1.04921
  358  C   1.07709   1.04920   1.06149   1.04920
  359  C   1.07708   1.04921   1.06150   1.04921
  360  C   1.07708   1.04920   1.06149   1.04920
  361  C   1.07708   1.04921   1.04921   1.06150
  362  C   1.07709   1.04925   1.04926   1.06154
  363  C   1.07708   1.04921   1.04921   1.06150
  364  C   1.07708   1.04921   1.04921   1.06150
  365  C   1.07708   1.04921   1.04921   1.06150
  366  C   1.07708   1.04921   1.04921   1.06150
  367  C   1.07709   1.04924   1.04925   1.06153
  368  C   1.07708   1.04921   1.04921   1.06150
  369  C   1.07708   1.04921   1.06151   1.04921
  370  C   1.07708   1.04920   1.06150   1.04921
  371  C   1.07708   1.04921   1.06150   1.04921
  372  C   1.07708   1.04923   1.06151   1.04923
  373  C   1.07708   1.04922   1.06151   1.04922
  374  C   1.07708   1.04921   1.06150   1.04921
  375  C   1.07708   1.04921   1.06150   1.04921
  376  C   1.07709   1.04920   1.06150   1.04920
  377  C   1.07708   1.06151   1.04921   1.04921
  378  C   1.07709   1.06150   1.04920   1.04920
  379  C   1.07708   1.06147   1.04918   1.04918
  380  C   1.07708   1.06150   1.04921   1.04921
  381  C   1.07708   1.06150   1.04920   1.04921
  382  C   1.07708   1.06148   1.04918   1.04917
  383  C   1.07709   1.06150   1.04921   1.04921
  384  C   1.07708   1.06150   1.04921   1.04921
  385  C   1.07709   1.04920   1.04921   1.06150
  386  C   1.07708   1.04923   1.04922   1.06151
  387  C   1.07708   1.04920   1.04920   1.06150
  388  C   1.07708   1.04921   1.04922   1.06150
  389  C   1.07708   1.04920   1.04917   1.06147
  390  C   1.07708   1.04921   1.04921   1.06150
  391  C   1.07708   1.04923   1.04923   1.06153
  392  C   1.07709   1.04920   1.04917   1.06148
  393  C   1.07708   1.04922   1.06150   1.04921
  394  C   1.07708   1.04921   1.06151   1.04921
  395  C   1.07708   1.04921   1.06150   1.04921
  396  C   1.07708   1.04922   1.06151   1.04921
  397  C   1.07708   1.04921   1.06150   1.04921
  398  C   1.07712   1.04922   1.06167   1.04927
  399  C   1.07712   1.04922   1.06167   1.04927
  400  C   1.07708   1.04921   1.06150   1.04921
  401  C   1.07709   1.04921   1.04920   1.06149
  402  C   1.07708   1.04921   1.04921   1.06150
  403  C   1.07708   1.04921   1.04921   1.06150
  404  C   1.07708   1.04921   1.04920   1.06149
  405  C   1.07708   1.04921   1.04921   1.06150
  406  C   1.07709   1.04918   1.04920   1.06148
  407  C   1.07709   1.04917   1.04920   1.06148
  408  C   1.07708   1.04921   1.04921   1.06150
  409  C   1.07708   1.04921   1.06150   1.04921
  410  C   1.07712   1.04924   1.06164   1.04918
  411  C   1.07712   1.04929   1.06168   1.04924
  412  C   1.07709   1.04920   1.06150   1.04921
  413  C   1.07708   1.04918   1.06147   1.04917
  414  C   1.07708   1.04923   1.06152   1.04924
  415  C   1.07708   1.04921   1.06151   1.04922
  416  C   1.07708   1.04920   1.06150   1.04921
  417  C   1.07712   1.06168   1.04925   1.04925
  418  C   1.07709   1.06149   1.04920   1.04920
  419  C   1.07708   1.06149   1.04920   1.04920
  420  C   1.07712   1.06170   1.04929   1.04928
  421  C   1.07710   1.06152   1.04925   1.04924
  422  C   1.07708   1.06150   1.04921   1.04921
  423  C   1.07708   1.06150   1.04921   1.04921
  424  C   1.07708   1.06150   1.04920   1.04920
  425  C   1.07708   1.06150   1.04921   1.04921
  426  C   1.07708   1.06150   1.04920   1.04920
  427  C   1.07708   1.06150   1.04921   1.04921
  428  C   1.07708   1.06150   1.04921   1.04921
  429  C   1.07712   1.06167   1.04924   1.04924
  430  C   1.07708   1.06151   1.04921   1.04921
  431  C   1.07708   1.06150   1.04921   1.04921
  432  C   1.07712   1.06167   1.04924   1.04925
  433  C   1.07532   0.93325   0.99732   0.93327
  434  C   1.07532   0.93328   0.99735   0.93328
  435  C   1.07532   0.93328   0.99735   0.93328
  436  C   1.07532   0.93328   0.99735   0.93328
  437  C   1.07532   0.93328   0.99735   0.93328
  438  C   1.07532   0.93328   0.99734   0.93328
  439  C   1.07532   0.93328   0.99735   0.93328
  440  C   1.07532   0.93326   0.99732   0.93328
  441  C   1.07532   0.93327   0.93328   0.99735
  442  C   1.07532   0.93326   0.93326   0.99733
  443  C   1.07532   0.93330   0.93330   0.99736
  444  C   1.07532   0.93327   0.93327   0.99734
  445  C   1.07532   0.93327   0.93327   0.99734
  446  C   1.07531   0.93330   0.93330   0.99736
  447  C   1.07532   0.93326   0.93326   0.99733
  448  C   1.07532   0.93327   0.93327   0.99734
  449  C   1.07532   0.99736   0.93329   0.93329
  450  C   1.07532   0.99734   0.93328   0.93328
  451  C   1.07532   0.99734   0.93327   0.93326
  452  C   1.07532   0.99735   0.93328   0.93328
  453  C   1.07532   0.99735   0.93328   0.93328
  454  C   1.07532   0.99734   0.93327   0.93327
  455  C   1.07532   0.99734   0.93328   0.93327
  456  C   1.07532   0.99736   0.93329   0.93329
  457  C   1.07532   0.99735   0.93328   0.93328
  458  C   1.07533   0.99728   0.93321   0.93324
  459  C   1.07532   0.99734   0.93327   0.93327
  460  C   1.07532   0.99735   0.93328   0.93328
  461  C   1.07532   0.99735   0.93328   0.93328
  462  C   1.07532   0.99735   0.93328   0.93328
  463  C   1.07533   0.99729   0.93321   0.93324
  464  C   1.07532   0.99735   0.93328   0.93328
  465  C   1.07532   0.93328   0.93327   0.99734
  466  C   1.07532   0.93328   0.93328   0.99735
  467  C   1.07532   0.93328   0.93328   0.99735
  468  C   1.07532   0.93326   0.93327   0.99732
  469  C   1.07532   0.93326   0.93328   0.99733
  470  C   1.07532   0.93327   0.93327   0.99734
  471  C   1.07532   0.93328   0.93327   0.99734
  472  C   1.07532   0.93328   0.93328   0.99735
  473  C   1.07532   0.93327   0.99734   0.93327
  474  C   1.07532   0.93327   0.99734   0.93327
  475  C   1.07531   0.93331   0.99739   0.93332
  476  C   1.07532   0.93327   0.99734   0.93327
  477  C   1.07532   0.93327   0.99734   0.93327
  478  C   1.07531   0.93331   0.99739   0.93332
  479  C   1.07532   0.93327   0.99734   0.93327
  480  C   1.07532   0.93327   0.99734   0.93327
  481  C   1.07532   0.93329   0.99736   0.93329
  482  C   1.07532   0.93326   0.99731   0.93326
  483  C   1.07532   0.93328   0.99735   0.93328
  484  C   1.07532   0.93328   0.99735   0.93328
  485  C   1.07532   0.93327   0.99733   0.93325
  486  C   1.07532   0.93328   0.99734   0.93327
  487  C   1.07532   0.93325   0.99732   0.93327
  488  C   1.07532   0.93328   0.99735   0.93327
  489  C   1.07532   0.93329   0.93330   0.99736
  490  C   1.07532   0.93327   0.93328   0.99735
  491  C   1.07532   0.93327   0.93327   0.99734
  492  C   1.07532   0.93328   0.93328   0.99735
  493  C   1.07532   0.93327   0.93327   0.99734
  494  C   1.07532   0.93329   0.93330   0.99737
  495  C   1.07532   0.93328   0.93328   0.99735
  496  C   1.07532   0.93327   0.93327   0.99734
  497  C   1.07532   0.93328   0.93328   0.99735
  498  C   1.07532   0.93327   0.93322   0.99731
  499  C   1.07533   0.93322   0.93320   0.99727
  500  C   1.07532   0.93328   0.93328   0.99735
  501  C   1.07532   0.93330   0.93329   0.99737
  502  C   1.07532   0.93325   0.93327   0.99732
  503  C   1.07532   0.93328   0.93328   0.99735
  504  C   1.07532   0.93328   0.93328   0.99735
  505  C   1.07532   0.93327   0.99734   0.93327
  506  C   1.07532   0.93327   0.99734   0.93327
  507  C   1.07532   0.93326   0.99733   0.93327
  508  C   1.07532   0.93328   0.99735   0.93328
  509  C   1.07532   0.93327   0.99734   0.93327
  510  C   1.07532   0.93327   0.99734   0.93328
  511  C   1.07532   0.93327   0.99734   0.93327
  512  C   1.07532   0.93325   0.99733   0.93327
  513  C   1.07532   0.99735   0.93328   0.93328
  514  C   1.07532   0.99734   0.93327   0.93327
  515  C   1.07532   0.99734   0.93327   0.93327
  516  C   1.07532   0.99733   0.93327   0.93327
  517  C   1.07532   0.99735   0.93327   0.93327
  518  C   1.07532   0.99734   0.93327   0.93327
  519  C   1.07532   0.99733   0.93326   0.93326
  520  C   1.07532   0.99735   0.93328   0.93327
  521  C   1.07531   0.99735   0.93330   0.93329
  522  C   1.07532   0.99734   0.93327   0.93327
  523  C   1.07532   0.99733   0.93326   0.93326
  524  C   1.07532   0.99735   0.93328   0.93328
  525  C   1.07531   0.99739   0.93332   0.93333
  526  C   1.07532   0.99732   0.93325   0.93325
  527  C   1.07532   0.99734   0.93327   0.93327
  528  C   1.07531   0.99740   0.93334   0.93335
  529  H   0.83990
  530  H   0.83989
  531  H   0.83989
  532  H   0.83989
  533  H   0.83989
  534  H   0.83989
  535  H   0.83989
  536  H   0.83990
  537  H   0.83988
  538  H   0.83988
  539  H   0.83989
  540  H   0.83988
  541  H   0.83988
  542  H   0.83989
  543  H   0.83988
  544  H   0.83988
  545  H   0.83988
  546  H   0.83989
  547  H   0.83989
  548  H   0.83989
  549  H   0.83989
  550  H   0.83988
  551  H   0.83989
  552  H   0.83988
  553  H   0.83989
  554  H   0.83990
  555  H   0.83989
  556  H   0.83989
  557  H   0.83989
  558  H   0.83989
  559  H   0.83990
  560  H   0.83988
  561  H   0.83989
  562  H   0.83989
  563  H   0.83989
  564  H   0.83990
  565  H   0.83990
  566  H   0.83988
  567  H   0.83988
  568  H   0.83989
  569  H   0.83988
  570  H   0.83988
  571  H   0.83988
  572  H   0.83988
  573  H   0.83988
  574  H   0.83988
  575  H   0.83988
  576  H   0.83988
  577  H   0.83988
  578  H   0.83989
  579  H   0.83989
  580  H   0.83989
  581  H   0.83988
  582  H   0.83988
  583  H   0.83990
  584  H   0.83988
  585  H   0.83988
  586  H   0.83988
  587  H   0.83988
  588  H   0.83988
  589  H   0.83988
  590  H   0.83988
  591  H   0.83988
  592  H   0.83989
  593  H   0.83989
  594  H   0.83990
  595  H   0.83991
  596  H   0.83988
  597  H   0.83988
  598  H   0.83990
  599  H   0.83989
  600  H   0.83989
  601  H   0.83988
  602  H   0.83989
  603  H   0.83988
  604  H   0.83988
  605  H   0.83989
  606  H   0.83988
  607  H   0.83988
  608  H   0.83988
  609  H   0.83988
  610  H   0.83988
  611  H   0.83988
  612  H   0.83988
  613  H   0.83988
  614  H   0.83988
  615  H   0.83988
  616  H   0.83988
  617  H   0.83989
  618  H   0.83988
  619  H   0.83988
  620  H   0.83988
  621  H   0.83988
  622  H   0.83988
  623  H   0.83989
  624  H   0.83989

 **********************
 *                    *
 * JOB ENDED NORMALLY *
 *                    *
 **********************



 TOTAL JOB TIME:           814.07 SECONDS

 == MOPAC DONE ==
