 *******************************************************************************
 ** Cite this program as: MOPAC2016, Version: 22.066W, James J. P. Stewart,   **
 **                           web-site: HTTP://OpenMOPAC.net.                 **
 *******************************************************************************
 **                                                                           **
 **                                MOPAC2016                                  **
 **                                                                           **
 *******************************************************************************

                              PM7 CALCULATION RESULTS

 *******************************************************************************
 *  CALCULATION DONE:                                Mon May  9 21:38:58 2022  *
 *  PM7        - The PM7 Hamiltonian to be used
 *
 *
 *
 *                 CHARGE ON SYSTEM = 0
 *
 *
 *
 *  PRECISE    - TIGHTER CRITERIA TO BE USED
 *  XYZ        - CARTESIAN COORDINATE SYSTEM TO BE USED
 *  SADDLE     - TRANSITION STATE TO BE OPTIMIZED
 *  T=         - A TIME OF 172800.0 SECONDS REQUESTED
 *  DUMP=N     - RESTART FILE WRITTEN EVERY 7200.0 SECONDS REQUESTED
 *******************************************************************************
PM7 CHARGE=0 PRECISE XYZ SADDLE
 Title

   ATOM   CHEMICAL          X               Y               Z
  NUMBER   SYMBOL      (ANGSTROMS)     (ANGSTROMS)     (ANGSTROMS)
 
     1       O          0.00000000  *   0.00000000  *   0.00000000  *
     2       C          1.21175168  *   0.00000000  *   0.00000000  *
     3       C          1.96591609  *   1.26274125  *   0.00000000  *
     4       C          3.30581850  *   1.27581503  *   0.09928989  *
     5       C          4.06560128  *   0.04389155  *   0.19265804  *
     6       C          3.45697195  *  -1.15232784  *   0.14198299  *
     7       C          1.97947984  *  -1.31018629  *   0.01914780  *
     8       H          1.36503129  *   2.16663545  *  -0.07445062  *
     9       H          3.87026567  *   2.20982790  *   0.11078851  *
    10       H          5.14481296  *   0.13369786  *   0.29809013  *
    11       C          1.65204590  *  -2.13307132  *  -1.24544348  *
    12       H          1.31977023  *  -2.40820591  *   1.72905108  *
    13       C          0.23757313  *  -2.62175573  *  -1.23401148  *
    14       H          2.36237497  *  -2.98353055  *  -1.32227600  *
    15       H          1.82863682  *  -1.51599267  *  -2.15189379  *
    16       C         -0.08176153  *  -3.91507825  *  -1.22728259  *
    17       H         -0.52243820  *  -1.83652554  *  -1.24097751  *
    18       H          0.64021653  *  -4.71613089  *  -1.21359167  *
    19       H         -1.09915337  *  -4.27327333  *  -1.22941531  *
    20       O          1.08090534  *  -3.15924850  *   2.28505812  *
    21       C         -0.13057076  *  -3.14604571  *   2.27719737  *
    22       C         -0.90113170  *  -4.39848686  *   2.26577794  *
    23       C         -2.23971862  *  -4.39263876  *   2.14886521  *
    24       C         -2.98123013  *  -3.15065481  *   2.04377101  *
    25       C         -2.35719262  *  -1.96253984  *   2.10546398  *
    26       C         -0.88086643  *  -1.82617504  *   2.25768703  *
    27       H         -0.31385076  *  -5.30992231  *   2.35002764  *
    28       H         -2.81679396  *  -5.31859117  *   2.13090982  *
    29       H         -4.05949170  *  -3.22541891  *   1.91838993  *
    30       H         -2.90164888  *  -1.01956194  *   2.03091111  *
    31       C         -0.56202008  *  -1.02132021  *   3.53627710  *
    32       H         -0.21556091  *  -0.72712107  *   0.54895727  *
    33       C          0.85129356  *  -0.52912582  *   3.53309050  *
    34       H         -0.73769718  *  -1.65261590  *   4.43294443  *
    35       H         -1.27561261  *  -0.17494778  *   3.62409291  *
    36       C          1.16867159  *   0.76456321  *   3.55162875  *
    37       H          1.61218578  *  -1.31357407  *   3.52265249  *
    38       H          0.44511024  *   1.56427688  *   3.55550980  *
    39       H          2.18539711  *   1.12447577  *   3.55946383  *
    40       H          4.01596216  *  -2.08727763  *   0.20607024  *
 


          CARTESIAN COORDINATES 

    NO.       ATOM           X           Y           Z

     1         O          0.0000      0.0000      0.0000
     2         C          1.2118      0.0000      0.0000
     3         C          1.9659      1.2627      0.0000
     4         C          3.3058      1.2758      0.0993
     5         C          4.0656      0.0439      0.1927
     6         C          3.4570     -1.1523      0.1420
     7         C          1.9795     -1.3102      0.0191
     8         H          1.3650      2.1666     -0.0745
     9         H          3.8703      2.2098      0.1108
    10         H          5.1448      0.1337      0.2981
    11         C          1.6520     -2.1331     -1.2454
    12         H          1.3198     -2.4082      1.7291
    13         C          0.2376     -2.6218     -1.2340
    14         H          2.3624     -2.9835     -1.3223
    15         H          1.8286     -1.5160     -2.1519
    16         C         -0.0818     -3.9151     -1.2273
    17         H         -0.5224     -1.8365     -1.2410
    18         H          0.6402     -4.7161     -1.2136
    19         H         -1.0992     -4.2733     -1.2294
    20         O          1.0809     -3.1592      2.2851
    21         C         -0.1306     -3.1460      2.2772
    22         C         -0.9011     -4.3985      2.2658
    23         C         -2.2397     -4.3926      2.1489
    24         C         -2.9812     -3.1507      2.0438
    25         C         -2.3572     -1.9625      2.1055
    26         C         -0.8809     -1.8262      2.2577
    27         H         -0.3139     -5.3099      2.3500
    28         H         -2.8168     -5.3186      2.1309
    29         H         -4.0595     -3.2254      1.9184
    30         H         -2.9016     -1.0196      2.0309
    31         C         -0.5620     -1.0213      3.5363
    32         H         -0.2156     -0.7271      0.5490
    33         C          0.8513     -0.5291      3.5331
    34         H         -0.7377     -1.6526      4.4329
    35         H         -1.2756     -0.1749      3.6241
    36         C          1.1687      0.7646      3.5516
    37         H          1.6122     -1.3136      3.5227
    38         H          0.4451      1.5643      3.5555
    39         H          2.1854      1.1245      3.5595
    40         H          4.0160     -2.0873      0.2061

 General Reference for PM7:
 "Optimization of Parameters for Semiempirical Methods VI: More Modifications to the 
 NDDO Approximations and Re-optimization of Parameters", J. J. P. Stewart, J. Mol. Mod., 1:32, 19 (2013)
 https://link.springer.com/article/10.1007/s00894-012-1667-x

           Empirical Formula: C18 H20 O2  =    40 atoms



      MOLECULAR POINT GROUP   :   Ci  


      RHF CALCULATION, NO. OF DOUBLY OCCUPIED LEVELS = 52



  CARTESIAN GEOMETRY OF FIRST SYSTEM


   1    O          0.00000       0.00000       0.00000
   2    C          1.21175       0.00000       0.00000
   3    C          1.96592       1.26274       0.00000
   4    C          3.30582       1.27582       0.09929
   5    C          4.06560       0.04389       0.19266
   6    C          3.45697      -1.15233       0.14198
   7    C          1.97948      -1.31019       0.01915
   8    H          1.36503       2.16664      -0.07445
   9    H          3.87027       2.20983       0.11079
  10    H          5.14481       0.13370       0.29809
  11    C          1.65205      -2.13307      -1.24544
  12    H          1.62855      -1.89427       0.92872
  13    C          0.23757      -2.62176      -1.23401
  14    H          2.36237      -2.98353      -1.32228
  15    H          1.82864      -1.51599      -2.15189
  16    C         -0.08176      -3.91508      -1.22728
  17    H         -0.52244      -1.83653      -1.24098
  18    H          0.64022      -4.71613      -1.21359
  19    H         -1.09915      -4.27327      -1.22942
  20    O          1.06773      -3.65760       2.23414
  21    C         -0.14374      -3.64440       2.22628
  22    C         -0.91430      -4.89684       2.21486
  23    C         -2.25289      -4.89099       2.09795
  24    C         -2.99440      -3.64901       1.99285
  25    C         -2.37036      -2.46090       2.05455
  26    C         -0.89404      -2.32453       2.20677
  27    H         -0.32702      -5.80828       2.29911
  28    H         -2.82997      -5.81695       2.07999
  29    H         -4.07266      -3.72377       1.86747
  30    H         -2.91482      -1.51792       1.97999
  31    C         -0.57519      -1.51968       3.48536
  32    H         -0.51488      -1.73676       1.31121
  33    C          0.83812      -1.02748       3.48217
  34    H         -0.75087      -2.15097       4.38203
  35    H         -1.28878      -0.67330       3.57318
  36    C          1.15550       0.26621       3.50071
  37    H          1.59901      -1.81193       3.47173
  38    H          0.43194       1.06592       3.50459
  39    H          2.17222       0.62612       3.50855
  40    H          4.01596      -2.08728       0.20607


  CARTESIAN GEOMETRY OF SECOND SYSTEM


   1    O         -0.07637      -0.20623       0.07481
   2    C          1.13457      -0.16649       0.05488
   3    C          1.84804       1.11832       0.11416
   4    C          3.18844       1.16973       0.19197
   5    C          3.98862      -0.03990       0.20274
   6    C          3.41754      -1.25070       0.09425
   7    C          1.94382      -1.44979      -0.01302
   8    H          1.21744       2.00477       0.10104
   9    H          3.72300       2.11963       0.24719
  10    H          5.06617       0.07919       0.29533
  11    C          1.61967      -2.21059      -1.31673
  12    H          1.35075      -2.66323       1.64241
  13    C          0.22191      -2.74527      -1.30979
  14    H          2.35518      -3.03162      -1.45340
  15    H          1.75994      -1.53807      -2.18947
  16    C         -0.05593      -4.04671      -1.37124
  17    H         -0.56270      -1.98625      -1.25966
  18    H          0.69130      -4.82315      -1.41493
  19    H         -1.06128      -4.43740      -1.37697
  20    O          1.14610      -3.45177       2.15874
  21    C         -0.06512      -3.47789       2.17157
  22    C         -0.79552      -4.75231       2.10175
  23    C         -2.13553      -4.78381       2.00739
  24    C         -2.91798      -3.56288       1.98519
  25    C         -2.33104      -2.36028       2.10396
  26    C         -0.85727      -2.18433       2.23937
  27    H         -0.17809      -5.64729       2.12444
  28    H         -2.68308      -5.72572       1.94639
  29    H         -3.99543      -3.66580       1.87352
  30    H         -2.90650      -1.43297       2.09203
  31    C         -0.54087      -1.44260       3.55617
  32    H         -0.25861      -0.96974       0.58508
  33    C          0.85577      -0.90491       3.55768
  34    H         -0.67995      -2.12872       4.41832
  35    H         -1.27931      -0.62636       3.70362
  36    C          1.13211       0.39541       3.64441
  37    H          1.64092      -1.66215       3.49021
  38    H          0.38366       1.16947       3.70559
  39    H          2.13684       0.78747       3.65594
  40    H          4.00707      -2.16894       0.09595


   "DISTANCE":     1.887793


  REACTION COORDINATE VECTOR


   1    O          0.07637       0.20623      -0.07481
   2    C          0.07719       0.16649      -0.05488
   3    C          0.11787       0.14442      -0.11416
   4    C          0.11738       0.10608      -0.09268
   5    C          0.07698       0.08380      -0.01008
   6    C          0.03944       0.09838       0.04773
   7    C          0.03566       0.13960       0.03217
   8    H          0.14759       0.16187      -0.17549
   9    H          0.14727       0.09019      -0.13640
  10    H          0.07864       0.05451       0.00276
  11    C          0.03237       0.07751       0.07129
  12    H          0.27781       0.76896      -0.71369
  13    C          0.01566       0.12352       0.07578
  14    H          0.00720       0.04809       0.13112
  15    H          0.06870       0.02208       0.03757
  16    C         -0.02583       0.13163       0.14396
  17    H          0.04026       0.14972       0.01868
  18    H         -0.05108       0.10702       0.20134
  19    H         -0.03787       0.16412       0.14755
  20    O         -0.07837      -0.20583       0.07540
  21    C         -0.07862      -0.16651       0.05471
  22    C         -0.11878      -0.14453       0.11311
  23    C         -0.11736      -0.10718       0.09056
  24    C         -0.07642      -0.08613       0.00766
  25    C         -0.03932      -0.10062      -0.04941
  26    C         -0.03677      -0.14020      -0.03260
  27    H         -0.14893      -0.16099       0.17467
  28    H         -0.14689      -0.09122       0.13360
  29    H         -0.07724      -0.05797      -0.00605
  30    H         -0.00832      -0.08495      -0.11204
  31    C         -0.03432      -0.07708      -0.07081
  32    H         -0.25626      -0.76702       0.72613
  33    C         -0.01765      -0.12257      -0.07551
  34    H         -0.07092      -0.02225      -0.03630
  35    H         -0.00947      -0.04694      -0.13045
  36    C          0.02339      -0.12920      -0.14370
  37    H         -0.04191      -0.14978      -0.01847
  38    H          0.04828      -0.10355      -0.20100
  39    H          0.03539      -0.16135      -0.14739
  40    H          0.00889       0.08166       0.11012
 *+*+*+*+*+*+*+*+*+*+*+*+*+*+*+*+*+*+*+*+*+*+*+*+*+*+*+*+*+*+*+*+*+*+*+*+*+*+*+*+
            BAR SHORTENED BY       0.000 PERCENT
 GRADIENT CRITERION IN FLEPO =     0.200
 

                    SINCE COS WAS JUST RESET,THE SEARCH IS BEING ENDED


          FOR POINT    1 SECOND STRUCTURE
 DISTANCE A - B      1.887793
 HEAT               -5.242384
 GRADIENT NORM       1.667246
 DIRECTION COSINE    0.000002
 PM7 CHARGE=0 PRECISE XYZ
 Title

  O     0.00011355 +1  -0.00014109 +1   0.00011859 +1
  C     1.21173785 +1  -0.00002300 +1  -0.00001995 +1
  C     1.96587054 +1   1.26272677 +1   0.00007914 +1
  C     3.30578383 +1   1.27576881 +1   0.09936449 +1
  C     4.06559590 +1   0.04387981 +1   0.19254662 +1
  C     3.45695218 +1  -1.15236390 +1   0.14237319 +1
  C     1.97951071 +1  -1.31021861 +1   0.01917007 +1
  H     1.36495977 +1   2.16653394 +1  -0.07452441 +1
  H     3.87021294 +1   2.20978961 +1   0.11151760 +1
  H     5.14491311 +1   0.13319627 +1   0.29817890 +1
  C     1.65204539 +1  -2.13311869 +1  -1.24552407 +1
  H     1.62754938 +1  -1.89457523 +1   0.92663311 +1
  C     0.23757068 +1  -2.62179727 +1  -1.23411016 +1
  H     2.36232629 +1  -2.98361172 +1  -1.32235056 +1
  H     1.82852921 +1  -1.51607257 +1  -2.15274890 +1
  C    -0.08176900 +1  -3.91512842 +1  -1.22731895 +1
  H    -0.52248196 +1  -1.83664263 +1  -1.24112508 +1
  H     0.64012681 +1  -4.71627072 +1  -1.21373240 +1
  H    -1.09919790 +1  -4.27340623 +1  -1.22958233 +1
  O     1.06778351 +1  -3.65775242 +1   2.23411327 +1
  C    -0.14372095 +1  -3.64435282 +1   2.22606313 +1
  C    -0.91430341 +1  -4.89682953 +1   2.21502510 +1
  C    -2.25289912 +1  -4.89098520 +1   2.09787533 +1
  C    -2.99437470 +1  -3.64896775 +1   1.99285977 +1
  C    -2.37037238 +1  -2.46087748 +1   2.05447478 +1
  C    -0.89401866 +1  -2.32445519 +1   2.20673931 +1
  H    -0.32694126 +1  -5.80830676 +1   2.29890319 +1
  H    -2.83009357 +1  -5.81707179 +1   2.07874694 +1
  H    -4.07264646 +1  -3.72379555 +1   1.86741458 +1
  H    -2.91486008 +1  -1.51800474 +1   1.98020610 +1
  C    -0.57519910 +1  -1.51964512 +1   3.48537130 +1
  H    -0.51494799 +1  -1.73648068 +1   1.31091165 +1
  C     0.83812887 +1  -1.02779298 +1   3.48225159 +1
  H    -0.75192736 +1  -2.15096413 +1   4.38193597 +1
  H    -1.28876696 +1  -0.67329497 +1   3.57309267 +1
  C     1.15544542 +1   0.26623479 +1   3.50068540 +1
  H     1.59902503 +1  -1.81189106 +1   3.47168358 +1
  H     0.43192052 +1   1.06596119 +1   3.50466152 +1
  H     2.17210950 +1   0.62618394 +1   3.50862882 +1
  H     4.01592444 +1  -2.08754977 +1   0.20586502 +1
 
 TIME=     0.53
  REACTANTS AND PRODUCTS SWAPPED AROUND
 *+*+*+*+*+*+*+*+*+*+*+*+*+*+*+*+*+*+*+*+*+*+*+*+*+*+*+*+*+*+*+*+*+*+*+*+*+*+*+*+
            BAR SHORTENED BY       1.000 PERCENT
 GRADIENT CRITERION IN FLEPO =     0.200
           THERE HAVE BEEN 3 ATTEMPTS TO REDUCE THE GRADIENT.
           DURING THESE ATTEMPTS THE ENERGY DROPPED BY LESS THAN 0.0 KCAL/MOLE
           FURTHER CALCULATION IS NOT JUSTIFIED AT THIS TIME.


          FOR POINT    2 FIRST  STRUCTURE
 DISTANCE A - B      1.868915
 HEAT              -11.672286
 GRADIENT NORM      19.531782
 DIRECTION COSINE   -0.104328
 PM7 CHARGE=0 PRECISE XYZ
 Title

  O    -0.04459014 +1  -0.14399419 +1   0.17361733 +1
  C     1.30755489 +1  -0.05968864 +1   0.03582491 +1
  C     1.89406531 +1   1.20372122 +1   0.16466549 +1
  C     3.28255657 +1   1.28997722 +1   0.22466965 +1
  C     4.05939529 +1   0.13003251 +1   0.24406722 +1
  C     3.46456450 +1  -1.10203211 +1  -0.00775255 +1
  C     2.09368563 +1  -1.18048190 +1  -0.27462160 +1
  H     1.27131195 +1   2.09321588 +1   0.19103064 +1
  H     3.76976550 +1   2.26230842 +1   0.26748491 +1
  H     5.13289709 +1   0.19070310 +1   0.39980228 +1
  C     1.63522989 +1  -2.25811566 +1  -1.20022002 +1
  H     1.38151438 +1  -2.66657755 +1   1.56583862 +1
  C     0.20383517 +1  -2.67428811 +1  -1.16348943 +1
  H     2.30984265 +1  -3.13941025 +1  -1.14297664 +1
  H     1.82226973 +1  -1.83148634 +1  -2.22983514 +1
  C    -0.14931327 +1  -3.95895487 +1  -1.17888777 +1
  H    -0.52945453 +1  -1.86798299 +1  -1.20734507 +1
  H     0.55891505 +1  -4.77388081 +1  -1.16471361 +1
  H    -1.17321867 +1  -4.29496992 +1  -1.20298155 +1
  O     1.12006402 +1  -3.50827006 +1   2.06651248 +1
  C    -0.23441535 +1  -3.57904605 +1   2.18847569 +1
  C    -0.83515888 +1  -4.83416427 +1   2.04721741 +1
  C    -2.22393285 +1  -4.90014445 +1   1.96647106 +1
  C    -2.98480848 +1  -3.72961420 +1   1.93661969 +1
  C    -2.37875063 +1  -2.50697370 +1   2.20610787 +1
  C    -1.01166013 +1  -2.45099860 +1   2.49648128 +1
  H    -0.22420618 +1  -5.73185006 +1   2.02763983 +1
  H    -2.72497381 +1  -5.86517492 +1   1.91614221 +1
  H    -4.05578384 +1  -3.77542098 +1   1.75988022 +1
  H    -2.97368944 +1  -1.59470013 +1   2.23326951 +1
  C    -0.55380691 +1  -1.39126723 +1   3.44187223 +1
  H    -0.29245140 +1  -0.98673452 +1   0.67868676 +1
  C     0.87565644 +1  -0.97036645 +1   3.40418298 +1
  H    -0.73628951 +1  -1.83696659 +1   4.46393402 +1
  H    -1.23184713 +1  -0.51119713 +1   3.40250741 +1
  C     1.22461648 +1   0.31484716 +1   3.44282676 +1
  H     1.61102347 +1  -1.77531992 +1   3.42674404 +1
  H     0.51266770 +1   1.12676196 +1   3.45079994 +1
  H     2.24720878 +1   0.65375285 +1   3.46653512 +1
  H     4.07132405 +1  -2.00638116 +1  -0.03928285 +1
 
 *+*+*+*+*+*+*+*+*+*+*+*+*+*+*+*+*+*+*+*+*+*+*+*+*+*+*+*+*+*+*+*+*+*+*+*+*+*+*+*+
            BAR SHORTENED BY       1.000 PERCENT
 GRADIENT CRITERION IN FLEPO =     2.000


          FOR POINT    3 FIRST  STRUCTURE
 DISTANCE A - B      1.850226
 HEAT              -11.283774
 GRADIENT NORM      22.066899
 DIRECTION COSINE    0.969452
 PM7 CHARGE=0 PRECISE XYZ
 Title

  O    -0.04507468 +1  -0.14522269 +1   0.17393950 +1
  C     1.30678516 +1  -0.05923126 +1   0.03547553 +1
  C     1.89472674 +1   1.20431182 +1   0.16063496 +1
  C     3.28285371 +1   1.28843529 +1   0.21919780 +1
  C     4.05943991 +1   0.12753238 +1   0.24223083 +1
  C     3.46373432 +1  -1.10418801 +1  -0.00434642 +1
  C     2.09243508 +1  -1.18155303 +1  -0.27115228 +1
  H     1.27295288 +1   2.09537781 +1   0.18586316 +1
  H     3.77269964 +1   2.25982736 +1   0.26268356 +1
  H     5.13296550 +1   0.18561903 +1   0.39684050 +1
  C     1.63385966 +1  -2.25626794 +1  -1.20066812 +1
  H     1.37772727 +1  -2.66726846 +1   1.55825427 +1
  C     0.20321523 +1  -2.67403181 +1  -1.16584826 +1
  H     2.31356949 +1  -3.13720846 +1  -1.14692825 +1
  H     1.82062432 +1  -1.82687535 +1  -2.22910132 +1
  C    -0.14866297 +1  -3.95894805 +1  -1.18337239 +1
  H    -0.53061149 +1  -1.86830115 +1  -1.21533238 +1
  H     0.55996632 +1  -4.77326597 +1  -1.16999368 +1
  H    -1.17237200 +1  -4.29585893 +1  -1.20538024 +1
  O     1.12025392 +1  -3.50668103 +1   2.06416596 +1
  C    -0.23429033 +1  -3.57966782 +1   2.18785368 +1
  C    -0.83665901 +1  -4.83490622 +1   2.04993408 +1
  C    -2.22558828 +1  -4.90043687 +1   1.96858622 +1
  C    -2.98541138 +1  -3.72911845 +1   1.93688748 +1
  C    -2.37841722 +1  -2.50636338 +1   2.19961820 +1
  C    -1.01104873 +1  -2.45021250 +1   2.49229054 +1
  H    -0.22830006 +1  -5.73442539 +1   2.03259207 +1
  H    -2.72861907 +1  -5.86525857 +1   1.92017617 +1
  H    -4.05751358 +1  -3.77563044 +1   1.76243060 +1
  H    -2.97304026 +1  -1.59376849 +1   2.22743279 +1
  C    -0.55413166 +1  -1.39330642 +1   3.44147020 +1
  H    -0.29222781 +1  -0.99073121 +1   0.68362807 +1
  C     0.87533014 +1  -0.97163692 +1   3.40607356 +1
  H    -0.73309997 +1  -1.84338085 +1   4.46058216 +1
  H    -1.23351583 +1  -0.51503389 +1   3.40560178 +1
  C     1.22294958 +1   0.31397270 +1   3.44571314 +1
  H     1.61111835 +1  -1.77660540 +1   3.42998497 +1
  H     0.50876654 +1   1.12424357 +1   3.45254108 +1
  H     2.24503011 +1   0.65368168 +1   3.46942955 +1
  H     4.06879090 +1  -2.00965553 +1  -0.03436293 +1
 
 *+*+*+*+*+*+*+*+*+*+*+*+*+*+*+*+*+*+*+*+*+*+*+*+*+*+*+*+*+*+*+*+*+*+*+*+*+*+*+*+
            BAR SHORTENED BY       1.000 PERCENT
 GRADIENT CRITERION IN FLEPO =     2.000


          FOR POINT    4 FIRST  STRUCTURE
 DISTANCE A - B      1.831724
 HEAT              -10.913108
 GRADIENT NORM      21.070923
 DIRECTION COSINE    0.956858
 PM7 CHARGE=0 PRECISE XYZ
 Title

  O    -0.04601172 +1  -0.14807098 +1   0.17586651 +1
  C     1.30587835 +1  -0.05911729 +1   0.03511249 +1
  C     1.89476788 +1   1.20404775 +1   0.15589076 +1
  C     3.28379322 +1   1.28752393 +1   0.21534958 +1
  C     4.05878370 +1   0.12657078 +1   0.24068901 +1
  C     3.46180091 +1  -1.10659414 +1   0.00039728 +1
  C     2.09104209 +1  -1.18280891 +1  -0.26778083 +1
  H     1.27532971 +1   2.09575381 +1   0.17813789 +1
  H     3.77482071 +1   2.25951404 +1   0.25286435 +1
  H     5.13375694 +1   0.18693511 +1   0.39042058 +1
  C     1.63514538 +1  -2.25517299 +1  -1.20075003 +1
  H     1.37781636 +1  -2.65951669 +1   1.55688035 +1
  C     0.20448662 +1  -2.67253853 +1  -1.16785476 +1
  H     2.31244140 +1  -3.13424755 +1  -1.15215154 +1
  H     1.82231617 +1  -1.82007563 +1  -2.22686370 +1
  C    -0.14665515 +1  -3.95763945 +1  -1.18318278 +1
  H    -0.52900797 +1  -1.86652901 +1  -1.21359503 +1
  H     0.56330411 +1  -4.77095533 +1  -1.16993577 +1
  H    -1.16992840 +1  -4.29491222 +1  -1.20598876 +1
  O     1.12057033 +1  -3.50198398 +1   2.05980148 +1
  C    -0.23377955 +1  -3.58005147 +1   2.18818338 +1
  C    -0.83737174 +1  -4.83475914 +1   2.05447878 +1
  C    -2.22636212 +1  -4.89956622 +1   1.97250270 +1
  C    -2.98598041 +1  -3.72851126 +1   1.93721939 +1
  C    -2.37748195 +1  -2.50502535 +1   2.19829506 +1
  C    -1.01073220 +1  -2.44939890 +1   2.48847992 +1
  H    -0.23017384 +1  -5.73545277 +1   2.03940832 +1
  H    -2.72815477 +1  -5.86342318 +1   1.92564875 +1
  H    -4.05732600 +1  -3.77331704 +1   1.76545172 +1
  H    -2.97014152 +1  -1.59091947 +1   2.21909942 +1
  C    -0.55350261 +1  -1.39528583 +1   3.44141370 +1
  H    -0.29025984 +1  -0.99216021 +1   0.68403295 +1
  C     0.87510350 +1  -0.97227622 +1   3.40804181 +1
  H    -0.73576410 +1  -1.85088378 +1   4.46006068 +1
  H    -1.23485862 +1  -0.51817344 +1   3.41035119 +1
  C     1.22173914 +1   0.31333263 +1   3.44819177 +1
  H     1.61111130 +1  -1.77750874 +1   3.43256471 +1
  H     0.50760918 +1   1.12310749 +1   3.45515322 +1
  H     2.24312982 +1   0.65368399 +1   3.47418791 +1
  H     4.06763544 +1  -2.01185506 +1  -0.02693074 +1
 
 TIME=     3.70
  REACTANTS AND PRODUCTS SWAPPED AROUND
 *+*+*+*+*+*+*+*+*+*+*+*+*+*+*+*+*+*+*+*+*+*+*+*+*+*+*+*+*+*+*+*+*+*+*+*+*+*+*+*+
            BAR SHORTENED BY       0.000 PERCENT
 GRADIENT CRITERION IN FLEPO =     2.000


          FOR POINT    5 SECOND STRUCTURE
 DISTANCE A - B      1.831724
 HEAT               -5.666120
 GRADIENT NORM       1.667436
 DIRECTION COSINE   -0.095387
 PM7 CHARGE=0 PRECISE XYZ
 Title

  O     0.00011355 +1  -0.00014109 +1   0.00011859 +1
  C     1.21173785 +1  -0.00002300 +1  -0.00001995 +1
  C     1.96587054 +1   1.26272677 +1   0.00007914 +1
  C     3.30578383 +1   1.27576881 +1   0.09936449 +1
  C     4.06559590 +1   0.04387981 +1   0.19254662 +1
  C     3.45695218 +1  -1.15236390 +1   0.14237319 +1
  C     1.97951071 +1  -1.31021861 +1   0.01917007 +1
  H     1.36495977 +1   2.16653394 +1  -0.07452441 +1
  H     3.87021294 +1   2.20978961 +1   0.11151760 +1
  H     5.14491311 +1   0.13319627 +1   0.29817890 +1
  C     1.65204539 +1  -2.13311869 +1  -1.24552407 +1
  H     1.62754938 +1  -1.89457523 +1   0.92663311 +1
  C     0.23757068 +1  -2.62179727 +1  -1.23411016 +1
  H     2.36232629 +1  -2.98361172 +1  -1.32235056 +1
  H     1.82852921 +1  -1.51607257 +1  -2.15274890 +1
  C    -0.08176900 +1  -3.91512842 +1  -1.22731895 +1
  H    -0.52248196 +1  -1.83664263 +1  -1.24112508 +1
  H     0.64012681 +1  -4.71627072 +1  -1.21373240 +1
  H    -1.09919790 +1  -4.27340623 +1  -1.22958233 +1
  O     1.06778351 +1  -3.65775242 +1   2.23411327 +1
  C    -0.14372095 +1  -3.64435282 +1   2.22606313 +1
  C    -0.91430341 +1  -4.89682953 +1   2.21502510 +1
  C    -2.25289912 +1  -4.89098520 +1   2.09787533 +1
  C    -2.99437470 +1  -3.64896775 +1   1.99285977 +1
  C    -2.37037238 +1  -2.46087748 +1   2.05447478 +1
  C    -0.89401866 +1  -2.32445519 +1   2.20673931 +1
  H    -0.32694126 +1  -5.80830676 +1   2.29890319 +1
  H    -2.83009357 +1  -5.81707179 +1   2.07874694 +1
  H    -4.07264646 +1  -3.72379555 +1   1.86741458 +1
  H    -2.91486008 +1  -1.51800474 +1   1.98020610 +1
  C    -0.57519910 +1  -1.51964512 +1   3.48537130 +1
  H    -0.51494799 +1  -1.73648068 +1   1.31091165 +1
  C     0.83812887 +1  -1.02779298 +1   3.48225159 +1
  H    -0.75192736 +1  -2.15096413 +1   4.38193597 +1
  H    -1.28876696 +1  -0.67329497 +1   3.57309267 +1
  C     1.15544542 +1   0.26623479 +1   3.50068540 +1
  H     1.59902503 +1  -1.81189106 +1   3.47168358 +1
  H     0.43192052 +1   1.06596119 +1   3.50466152 +1
  H     2.17210950 +1   0.62618394 +1   3.50862882 +1
  H     4.01592444 +1  -2.08754977 +1   0.20586502 +1
 
 TIME=     0.09
  REACTANTS AND PRODUCTS SWAPPED AROUND
 *+*+*+*+*+*+*+*+*+*+*+*+*+*+*+*+*+*+*+*+*+*+*+*+*+*+*+*+*+*+*+*+*+*+*+*+*+*+*+*+
            BAR SHORTENED BY       1.000 PERCENT
 GRADIENT CRITERION IN FLEPO =     2.000


          FOR POINT    6 FIRST  STRUCTURE
 DISTANCE A - B      1.813407
 HEAT              -10.510333
 GRADIENT NORM      21.538728
 DIRECTION COSINE   -0.082206
 PM7 CHARGE=0 PRECISE XYZ
 Title

  O    -0.04658043 +1  -0.14978063 +1   0.18062687 +1
  C     1.30502803 +1  -0.05892233 +1   0.03881321 +1
  C     1.89556296 +1   1.20451489 +1   0.15238080 +1
  C     3.28438926 +1   1.28747026 +1   0.21174004 +1
  C     4.05921220 +1   0.12580175 +1   0.24082861 +1
  C     3.46133774 +1  -1.10747752 +1   0.00359075 +1
  C     2.09062941 +1  -1.18360061 +1  -0.26475452 +1
  H     1.27760817 +1   2.09764174 +1   0.16605685 +1
  H     3.77593343 +1   2.25821923 +1   0.24884002 +1
  H     5.13361811 +1   0.18552017 +1   0.38930609 +1
  C     1.63509301 +1  -2.25282977 +1  -1.20270516 +1
  H     1.37610329 +1  -2.65711902 +1   1.54913809 +1
  C     0.20416487 +1  -2.67361403 +1  -1.17083556 +1
  H     2.31067600 +1  -3.13388078 +1  -1.15719155 +1
  H     1.81975709 +1  -1.81113850 +1  -2.22704252 +1
  C    -0.14746188 +1  -3.95874499 +1  -1.18708293 +1
  H    -0.53167324 +1  -1.86937319 +1  -1.21647917 +1
  H     0.56136246 +1  -4.77320641 +1  -1.17335637 +1
  H    -1.17014653 +1  -4.29782405 +1  -1.21024476 +1
  O     1.12015870 +1  -3.50067089 +1   2.04900280 +1
  C    -0.23363889 +1  -3.58046830 +1   2.18147764 +1
  C    -0.83832437 +1  -4.83561520 +1   2.05538591 +1
  C    -2.22869152 +1  -4.89937659 +1   1.97453975 +1
  C    -2.98732948 +1  -3.72812974 +1   1.93655641 +1
  C    -2.37724143 +1  -2.50440286 +1   2.19211506 +1
  C    -1.01097323 +1  -2.44943360 +1   2.48466432 +1
  H    -0.23441585 +1  -5.73792556 +1   2.04521924 +1
  H    -2.73125293 +1  -5.86424807 +1   1.92805944 +1
  H    -4.05968443 +1  -3.77447609 +1   1.76522717 +1
  H    -2.97146801 +1  -1.59112854 +1   2.21309222 +1
  C    -0.55605235 +1  -1.39888989 +1   3.44066721 +1
  H    -0.29109932 +1  -0.99686930 +1   0.68634484 +1
  C     0.87244624 +1  -0.97580936 +1   3.40759892 +1
  H    -0.73804521 +1  -1.85791643 +1   4.45650766 +1
  H    -1.23786777 +1  -0.52155914 +1   3.41412294 +1
  C     1.21822376 +1   0.31016261 +1   3.44723591 +1
  H     1.60904213 +1  -1.77965602 +1   3.43142264 +1
  H     0.50397388 +1   1.12015947 +1   3.45337210 +1
  H     2.24003576 +1   0.65157807 +1   3.47271759 +1
  H     4.06435544 +1  -2.01498265 +1  -0.01534580 +1
 
 TIME=     0.34
  REACTANTS AND PRODUCTS SWAPPED AROUND
 *+*+*+*+*+*+*+*+*+*+*+*+*+*+*+*+*+*+*+*+*+*+*+*+*+*+*+*+*+*+*+*+*+*+*+*+*+*+*+*+
            BAR SHORTENED BY       1.000 PERCENT
 GRADIENT CRITERION IN FLEPO =     2.000


          FOR POINT    7 SECOND STRUCTURE
 DISTANCE A - B      1.795273
 HEAT               -5.651198
 GRADIENT NORM       3.833474
 DIRECTION COSINE   -0.289155
 PM7 CHARGE=0 PRECISE XYZ
 Title

  O     0.00041396 +1  -0.00326889 +1   0.00510555 +1
  C     1.21211286 +1  -0.00159105 +1   0.00250011 +1
  C     1.96519356 +1   1.26232993 +1   0.00382589 +1
  C     3.30515260 +1   1.27802131 +1   0.10323036 +1
  C     4.06594560 +1   0.04608902 +1   0.19350465 +1
  C     3.45737873 +1  -1.15064095 +1   0.14087490 +1
  C     1.98004417 +1  -1.31279487 +1   0.01848371 +1
  H     1.36150626 +1   2.16432157 +1  -0.06905359 +1
  H     3.86717428 +1   2.21255353 +1   0.11632773 +1
  H     5.14460610 +1   0.13822952 +1   0.30218608 +1
  C     1.65208071 +1  -2.13650941 +1  -1.24609574 +1
  H     1.62586666 +1  -1.90350001 +1   0.92133492 +1
  C     0.23684048 +1  -2.62373347 +1  -1.23328421 +1
  H     2.36063694 +1  -2.98895206 +1  -1.31798601 +1
  H     1.82775174 +1  -1.52220748 +1  -2.15435859 +1
  C    -0.08400852 +1  -3.91665602 +1  -1.22653181 +1
  H    -0.52327048 +1  -1.83842001 +1  -1.24085582 +1
  H     0.63701847 +1  -4.71875130 +1  -1.21335036 +1
  H    -1.10162520 +1  -4.27504646 +1  -1.23006857 +1
  O     1.06760112 +1  -3.65490364 +1   2.22973670 +1
  C    -0.14396628 +1  -3.64288901 +1   2.22307654 +1
  C    -0.91381601 +1  -4.89639994 +1   2.21149336 +1
  C    -2.25228519 +1  -4.89173482 +1   2.09394579 +1
  C    -2.99478709 +1  -3.64976795 +1   1.99049874 +1
  C    -2.37093627 +1  -2.46188296 +1   2.05634503 +1
  C    -0.89434160 +1  -2.32195724 +1   2.20572000 +1
  H    -0.32503287 +1  -5.80744747 +1   2.29315081 +1
  H    -2.82767151 +1  -5.81905130 +1   2.07333999 +1
  H    -4.07311239 +1  -3.72620163 +1   1.86371485 +1
  H    -2.91761736 +1  -1.52014139 +1   1.98888315 +1
  C    -0.57524903 +1  -1.51644873 +1   3.48395425 +1
  H    -0.51919187 +1  -1.73137625 +1   1.31339162 +1
  C     0.83882679 +1  -1.02688365 +1   3.47989371 +1
  H    -0.75410979 +1  -2.14094365 +1   4.38381548 +1
  H    -1.28720478 +1  -0.66820303 +1   3.56855719 +1
  C     1.15703811 +1   0.26659141 +1   3.49769801 +1
  H     1.59970878 +1  -1.81129700 +1   3.46874228 +1
  H     0.43424975 +1   1.06705656 +1   3.50176593 +1
  H     2.17373537 +1   0.62677558 +1   3.50619407 +1
  H     4.01923772 +1  -2.08276883 +1   0.19979629 +1
 
 TIME=     0.38
  REACTANTS AND PRODUCTS SWAPPED AROUND
 *+*+*+*+*+*+*+*+*+*+*+*+*+*+*+*+*+*+*+*+*+*+*+*+*+*+*+*+*+*+*+*+*+*+*+*+*+*+*+*+
            BAR SHORTENED BY       1.000 PERCENT
 GRADIENT CRITERION IN FLEPO =     2.000


          FOR POINT    8 FIRST  STRUCTURE
 DISTANCE A - B      1.777320
 HEAT              -10.115732
 GRADIENT NORM      21.765676
 DIRECTION COSINE   -0.225676
 PM7 CHARGE=0 PRECISE XYZ
 Title

  O    -0.04679147 +1  -0.15180306 +1   0.18530093 +1
  C     1.30434792 +1  -0.05936422 +1   0.03840304 +1
  C     1.89553670 +1   1.20422968 +1   0.14838181 +1
  C     3.28501975 +1   1.28492778 +1   0.20738361 +1
  C     4.05834501 +1   0.12414873 +1   0.23964213 +1
  C     3.45947214 +1  -1.10989662 +1   0.00775775 +1
  C     2.08903133 +1  -1.18463985 +1  -0.26178796 +1
  H     1.27885806 +1   2.09843085 +1   0.16058528 +1
  H     3.77701875 +1   2.25603728 +1   0.23762817 +1
  H     5.13341421 +1   0.18408630 +1   0.38831372 +1
  C     1.63325094 +1  -2.25073064 +1  -1.20266087 +1
  H     1.36987722 +1  -2.65281491 +1   1.54158603 +1
  C     0.20395051 +1  -2.67310098 +1  -1.17200119 +1
  H     2.31198726 +1  -3.12905502 +1  -1.16116241 +1
  H     1.81780141 +1  -1.80336561 +1  -2.22435751 +1
  C    -0.14613250 +1  -3.95831483 +1  -1.18927675 +1
  H    -0.53126697 +1  -1.86852014 +1  -1.21692423 +1
  H     0.56504202 +1  -4.77136623 +1  -1.17534359 +1
  H    -1.16918596 +1  -4.29704511 +1  -1.21442987 +1
  O     1.11979458 +1  -3.49976988 +1   2.04470828 +1
  C    -0.23341240 +1  -3.58023823 +1   2.17816397 +1
  C    -0.83935492 +1  -4.83536657 +1   2.05700592 +1
  C    -2.22874565 +1  -4.89887972 +1   1.97746456 +1
  C    -2.98764141 +1  -3.72770480 +1   1.93617403 +1
  C    -2.37702252 +1  -2.50349884 +1   2.18925345 +1
  C    -1.01049938 +1  -2.44933735 +1   2.48014885 +1
  H    -0.23562830 +1  -5.73918424 +1   2.05480694 +1
  H    -2.73290597 +1  -5.86318361 +1   1.93541484 +1
  H    -4.05974015 +1  -3.77318817 +1   1.76767730 +1
  H    -2.96902388 +1  -1.58741461 +1   2.20712794 +1
  C    -0.55620051 +1  -1.40113941 +1   3.44071477 +1
  H    -0.28861706 +1  -0.99613606 +1   0.69255296 +1
  C     0.87237243 +1  -0.97628780 +1   3.41074127 +1
  H    -0.73840457 +1  -1.86413945 +1   4.45596718 +1
  H    -1.23836620 +1  -0.52387570 +1   3.41774973 +1
  C     1.21714834 +1   0.31016777 +1   3.45355622 +1
  H     1.60733581 +1  -1.77978295 +1   3.43515363 +1
  H     0.50214003 +1   1.11922579 +1   3.45776730 +1
  H     2.23761862 +1   0.65142619 +1   3.47840660 +1
  H     4.06380183 +1  -2.01696005 +1  -0.01015810 +1
 
 TIME=     0.41
  REACTANTS AND PRODUCTS SWAPPED AROUND
 *+*+*+*+*+*+*+*+*+*+*+*+*+*+*+*+*+*+*+*+*+*+*+*+*+*+*+*+*+*+*+*+*+*+*+*+*+*+*+*+
            BAR SHORTENED BY       1.000 PERCENT
 GRADIENT CRITERION IN FLEPO =     2.000
 

                    SINCE COS WAS JUST RESET,THE SEARCH IS BEING ENDED


          FOR POINT    9 SECOND STRUCTURE
 DISTANCE A - B      1.759547
 HEAT               -5.156624
 GRADIENT NORM      12.061355
 DIRECTION COSINE    0.707179
 PM7 CHARGE=0 PRECISE XYZ
 Title

  O    -0.00005810 +1  -0.00475423 +1   0.00690750 +1
  C     1.21303521 +1  -0.00216878 +1   0.00285913 +1
  C     1.96449699 +1   1.26174893 +1   0.00527145 +1
  C     3.30495127 +1   1.27809037 +1   0.10427189 +1
  C     4.06586959 +1   0.04686961 +1   0.19396603 +1
  C     3.45739966 +1  -1.15023351 +1   0.13954373 +1
  C     1.98113404 +1  -1.31151332 +1   0.01568099 +1
  H     1.36067978 +1   2.16366267 +1  -0.06675721 +1
  H     3.86627272 +1   2.21298836 +1   0.11754073 +1
  H     5.14449418 +1   0.13868809 +1   0.30304735 +1
  C     1.65189241 +1  -2.13765162 +1  -1.24566139 +1
  H     1.62330677 +1  -1.91099317 +1   0.92753742 +1
  C     0.23651158 +1  -2.62422715 +1  -1.23267138 +1
  H     2.36015045 +1  -2.99035309 +1  -1.31641778 +1
  H     1.82765224 +1  -1.52501907 +1  -2.15505858 +1
  C    -0.08462976 +1  -3.91707260 +1  -1.22615925 +1
  H    -0.52335044 +1  -1.83872101 +1  -1.24061650 +1
  H     0.63629871 +1  -4.71927745 +1  -1.21297029 +1
  H    -1.10230081 +1  -4.27526645 +1  -1.22991219 +1
  O     1.06812305 +1  -3.65335230 +1   2.22788642 +1
  C    -0.14486074 +1  -3.64226250 +1   2.22262741 +1
  C    -0.91307140 +1  -4.89578960 +1   2.20994848 +1
  C    -2.25204980 +1  -4.89180627 +1   2.09278098 +1
  C    -2.99471563 +1  -3.65054732 +1   1.98995550 +1
  C    -2.37099713 +1  -2.46229912 +1   2.05767412 +1
  C    -0.89550318 +1  -2.32323104 +1   2.20846429 +1
  H    -0.32413882 +1  -5.80676484 +1   2.29076737 +1
  H    -2.82672386 +1  -5.81949262 +1   2.07196074 +1
  H    -4.07297867 +1  -3.72667150 +1   1.86275448 +1
  H    -2.91813143 +1  -1.52081412 +1   1.99106560 +1
  C    -0.57505854 +1  -1.51529564 +1   3.48352185 +1
  H    -0.51688612 +1  -1.72402387 +1   1.30718323 +1
  C     0.83916224 +1  -1.02637769 +1   3.47920219 +1
  H    -0.75395273 +1  -2.13817562 +1   4.38453700 +1
  H    -1.28671639 +1  -0.66675976 +1   3.56704912 +1
  C     1.15763921 +1   0.26702717 +1   3.49725660 +1
  H     1.59978505 +1  -1.81098186 +1   3.46840639 +1
  H     0.43492865 +1   1.06757825 +1   3.50132595 +1
  H     2.17437420 +1   0.62702208 +1   3.50591619 +1
  H     4.01968336 +1  -2.08211074 +1   0.19769675 +1
 
 TIME=     0.30
  REACTANTS AND PRODUCTS SWAPPED AROUND
 *+*+*+*+*+*+*+*+*+*+*+*+*+*+*+*+*+*+*+*+*+*+*+*+*+*+*+*+*+*+*+*+*+*+*+*+*+*+*+*+
            BAR SHORTENED BY       1.000 PERCENT
 GRADIENT CRITERION IN FLEPO =     1.812


          FOR POINT   10 FIRST  STRUCTURE
 DISTANCE A - B      1.741951
 HEAT               -9.270271
 GRADIENT NORM      24.513580
 DIRECTION COSINE    0.717331
 PM7 CHARGE=0 PRECISE XYZ
 Title

  O    -0.04681275 +1  -0.15246850 +1   0.18749359 +1
  C     1.30353965 +1  -0.05950540 +1   0.03992979 +1
  C     1.89546149 +1   1.20431107 +1   0.14639164 +1
  C     3.28500819 +1   1.28509621 +1   0.20428330 +1
  C     4.05868375 +1   0.12273782 +1   0.24026143 +1
  C     3.45919156 +1  -1.11126186 +1   0.01101320 +1
  C     2.08835055 +1  -1.18564625 +1  -0.25845166 +1
  H     1.28036091 +1   2.09917351 +1   0.15545568 +1
  H     3.77836369 +1   2.25500308 +1   0.23139201 +1
  H     5.13325488 +1   0.18265628 +1   0.38702989 +1
  C     1.63345066 +1  -2.24865292 +1  -1.20287325 +1
  H     1.37152552 +1  -2.64968868 +1   1.53856262 +1
  C     0.20418341 +1  -2.67219210 +1  -1.17212532 +1
  H     2.31357282 +1  -3.12660016 +1  -1.16528651 +1
  H     1.81799343 +1  -1.79853135 +1  -2.22295758 +1
  C    -0.14405406 +1  -3.95800088 +1  -1.18994236 +1
  H    -0.53075727 +1  -1.86771451 +1  -1.21461764 +1
  H     0.56757958 +1  -4.77028733 +1  -1.17593847 +1
  H    -1.16708192 +1  -4.29652416 +1  -1.21447581 +1
  O     1.11967660 +1  -3.49786977 +1   2.04387456 +1
  C    -0.23301819 +1  -3.58060308 +1   2.17894816 +1
  C    -0.83966615 +1  -4.83610375 +1   2.06067772 +1
  C    -2.22919252 +1  -4.89822378 +1   1.98219729 +1
  C    -2.98752681 +1  -3.72645290 +1   1.93725847 +1
  C    -2.37654184 +1  -2.50109067 +1   2.18404374 +1
  C    -1.00961213 +1  -2.44827062 +1   2.47701552 +1
  H    -0.23685504 +1  -5.73951276 +1   2.05904147 +1
  H    -2.73508342 +1  -5.86242973 +1   1.94124516 +1
  H    -4.06028077 +1  -3.77207562 +1   1.77121221 +1
  H    -2.96754202 +1  -1.58704059 +1   2.20153193 +1
  C    -0.55634382 +1  -1.40371098 +1   3.44141859 +1
  H    -0.28786376 +1  -1.00082764 +1   0.69614155 +1
  C     0.87128262 +1  -0.97667753 +1   3.41198069 +1
  H    -0.73889982 +1  -1.87583550 +1   4.45403659 +1
  H    -1.23945291 +1  -0.52830566 +1   3.42107503 +1
  C     1.21595429 +1   0.30942184 +1   3.45303926 +1
  H     1.60806536 +1  -1.78075339 +1   3.43557576 +1
  H     0.49893583 +1   1.11750456 +1   3.45920191 +1
  H     2.23722326 +1   0.65156851 +1   3.47951282 +1
  H     4.05747052 +1  -2.01809402 +1  -0.00588101 +1
 
 *+*+*+*+*+*+*+*+*+*+*+*+*+*+*+*+*+*+*+*+*+*+*+*+*+*+*+*+*+*+*+*+*+*+*+*+*+*+*+*+
            BAR SHORTENED BY       1.000 PERCENT
 GRADIENT CRITERION IN FLEPO =     2.000


          FOR POINT   11 FIRST  STRUCTURE
 DISTANCE A - B      1.724532
 HEAT               -9.300632
 GRADIENT NORM      23.625161
 DIRECTION COSINE    0.965505
 PM7 CHARGE=0 PRECISE XYZ
 Title

  O    -0.04760180 +1  -0.15395695 +1   0.19222277 +1
  C     1.30306610 +1  -0.05945431 +1   0.04339852 +1
  C     1.89559408 +1   1.20369854 +1   0.14361049 +1
  C     3.28553054 +1   1.28411805 +1   0.19965102 +1
  C     4.05828676 +1   0.12205227 +1   0.24110245 +1
  C     3.45664777 +1  -1.11179109 +1   0.01561371 +1
  C     2.08710330 +1  -1.18604217 +1  -0.25517120 +1
  H     1.28115005 +1   2.09987861 +1   0.14905054 +1
  H     3.77953047 +1   2.25405477 +1   0.22161435 +1
  H     5.13336763 +1   0.18082521 +1   0.38625330 +1
  C     1.63348404 +1  -2.24532110 +1  -1.20323796 +1
  H     1.36780450 +1  -2.64659863 +1   1.53806100 +1
  C     0.20497210 +1  -2.66925269 +1  -1.17107779 +1
  H     2.31562872 +1  -3.12283945 +1  -1.16936276 +1
  H     1.81769334 +1  -1.78938890 +1  -2.22090236 +1
  C    -0.14053547 +1  -3.95531312 +1  -1.18873024 +1
  H    -0.53134962 +1  -1.86586143 +1  -1.21389414 +1
  H     0.57433726 +1  -4.76476496 +1  -1.17527861 +1
  H    -1.16307737 +1  -4.29680221 +1  -1.21278033 +1
  O     1.12008083 +1  -3.49639709 +1   2.03966345 +1
  C    -0.23279138 +1  -3.58037908 +1   2.17575920 +1
  C    -0.83949910 +1  -4.83558083 +1   2.06412491 +1
  C    -2.22978638 +1  -4.89662672 +1   1.98706624 +1
  C    -2.98725409 +1  -3.72544271 +1   1.93799756 +1
  C    -2.37496568 +1  -2.50060175 +1   2.18268216 +1
  C    -1.00929677 +1  -2.44778910 +1   2.47347190 +1
  H    -0.23762412 +1  -5.74006771 +1   2.06631519 +1
  H    -2.73587624 +1  -5.86078066 +1   1.95773299 +1
  H    -4.05986793 +1  -3.76975302 +1   1.77364185 +1
  H    -2.96499020 +1  -1.58446154 +1   2.19504326 +1
  C    -0.55620518 +1  -1.40834881 +1   3.44318343 +1
  H    -0.28492456 +1  -1.00552893 +1   0.69833810 +1
  C     0.87077666 +1  -0.97961425 +1   3.41502561 +1
  H    -0.73604800 +1  -1.88437469 +1   4.45130974 +1
  H    -1.24057903 +1  -0.53315854 +1   3.42923058 +1
  C     1.21281287 +1   0.30692027 +1   3.45647717 +1
  H     1.60932460 +1  -1.78157169 +1   3.43901910 +1
  H     0.49650608 +1   1.11531872 +1   3.46263288 +1
  H     2.23336321 +1   0.65157774 +1   3.48363407 +1
  H     4.05880372 +1  -2.02029885 +1   0.00047281 +1
 
 *+*+*+*+*+*+*+*+*+*+*+*+*+*+*+*+*+*+*+*+*+*+*+*+*+*+*+*+*+*+*+*+*+*+*+*+*+*+*+*+
            BAR SHORTENED BY       1.000 PERCENT
 GRADIENT CRITERION IN FLEPO =     2.000


          FOR POINT   12 FIRST  STRUCTURE
 DISTANCE A - B      1.707286
 HEAT               -8.872290
 GRADIENT NORM      26.759922
 DIRECTION COSINE    0.976345
 PM7 CHARGE=0 PRECISE XYZ
 Title

  O    -0.04797330 +1  -0.15546113 +1   0.19962679 +1
  C     1.30168840 +1  -0.05919960 +1   0.04317958 +1
  C     1.89591444 +1   1.20423550 +1   0.13908325 +1
  C     3.28578091 +1   1.28320304 +1   0.19476816 +1
  C     4.05801686 +1   0.11981976 +1   0.24003513 +1
  C     3.45671821 +1  -1.11440507 +1   0.01769071 +1
  C     2.08658914 +1  -1.18689663 +1  -0.25224009 +1
  H     1.28208984 +1   2.10026277 +1   0.14416356 +1
  H     3.78091638 +1   2.25301387 +1   0.21592802 +1
  H     5.13269524 +1   0.17919531 +1   0.38461806 +1
  C     1.63387291 +1  -2.24436649 +1  -1.20373455 +1
  H     1.36933885 +1  -2.64268539 +1   1.53208001 +1
  C     0.20529929 +1  -2.66869257 +1  -1.17349235 +1
  H     2.31571458 +1  -3.12110503 +1  -1.17383855 +1
  H     1.81668588 +1  -1.78479482 +1  -2.22081215 +1
  C    -0.14014548 +1  -3.95513858 +1  -1.19042142 +1
  H    -0.53159836 +1  -1.86547688 +1  -1.21555395 +1
  H     0.57417388 +1  -4.76462870 +1  -1.17771787 +1
  H    -1.16195190 +1  -4.29726683 +1  -1.21515307 +1
  O     1.11978700 +1  -3.49562664 +1   2.03821824 +1
  C    -0.23207234 +1  -3.58077952 +1   2.17629699 +1
  C    -0.84010339 +1  -4.83641505 +1   2.06700554 +1
  C    -2.23017961 +1  -4.89708944 +1   1.99243982 +1
  C    -2.98773208 +1  -3.72482317 +1   1.93834035 +1
  C    -2.37501889 +1  -2.49984447 +1   2.17787331 +1
  C    -1.00827227 +1  -2.44689993 +1   2.47051396 +1
  H    -0.23910780 +1  -5.74133755 +1   2.07225317 +1
  H    -2.73854613 +1  -5.86002696 +1   1.96669859 +1
  H    -4.06101227 +1  -3.77067616 +1   1.77480968 +1
  H    -2.96431317 +1  -1.58313195 +1   2.18985407 +1
  C    -0.55603024 +1  -1.40931924 +1   3.44316687 +1
  H    -0.28631618 +1  -1.00914693 +1   0.70440208 +1
  C     0.87116504 +1  -0.98017216 +1   3.41636318 +1
  H    -0.73611691 +1  -1.88816810 +1   4.45114388 +1
  H    -1.24130005 +1  -0.53496170 +1   3.43229181 +1
  C     1.21213142 +1   0.30677349 +1   3.45870679 +1
  H     1.61110246 +1  -1.78189149 +1   3.44148142 +1
  H     0.49543827 +1   1.11456876 +1   3.46456413 +1
  H     2.23033147 +1   0.65181878 +1   3.48685765 +1
  H     4.05857128 +1  -2.02287381 +1   0.00579383 +1
 
 TIME=     1.17
  REACTANTS AND PRODUCTS SWAPPED AROUND
 *+*+*+*+*+*+*+*+*+*+*+*+*+*+*+*+*+*+*+*+*+*+*+*+*+*+*+*+*+*+*+*+*+*+*+*+*+*+*+*+
            BAR SHORTENED BY       0.000 PERCENT
 GRADIENT CRITERION IN FLEPO =     2.000
 

                    SINCE COS WAS JUST RESET,THE SEARCH IS BEING ENDED


          FOR POINT   13 SECOND STRUCTURE
 DISTANCE A - B      1.707286
 HEAT               -5.163179
 GRADIENT NORM      11.533357
 DIRECTION COSINE    0.692019
 PM7 CHARGE=0 PRECISE XYZ
 Title

  O    -0.00001488 +1  -0.00480202 +1   0.00698232 +1
  C     1.21297948 +1  -0.00238814 +1   0.00295532 +1
  C     1.96451142 +1   1.26172721 +1   0.00538495 +1
  C     3.30406840 +1   1.27807571 +1   0.10439914 +1
  C     4.06585295 +1   0.04685065 +1   0.19407969 +1
  C     3.45740237 +1  -1.15022030 +1   0.13955873 +1
  C     1.98106515 +1  -1.31167350 +1   0.01588900 +1
  H     1.36061093 +1   2.16358574 +1  -0.06668457 +1
  H     3.86627139 +1   2.21301357 +1   0.11766848 +1
  H     5.14450189 +1   0.13866876 +1   0.30310702 +1
  C     1.65187950 +1  -2.13764965 +1  -1.24566745 +1
  H     1.62416494 +1  -1.91059897 +1   0.92724886 +1
  C     0.23650504 +1  -2.62428492 +1  -1.23261696 +1
  H     2.36014131 +1  -2.99038927 +1  -1.31620641 +1
  H     1.82770629 +1  -1.52537023 +1  -2.15505359 +1
  C    -0.08465052 +1  -3.91712610 +1  -1.22613445 +1
  H    -0.52333460 +1  -1.83871918 +1  -1.24054317 +1
  H     0.63622512 +1  -4.71931374 +1  -1.21290847 +1
  H    -1.10235923 +1  -4.27525160 +1  -1.22988701 +1
  O     1.06808142 +1  -3.65328882 +1   2.22784955 +1
  C    -0.14479919 +1  -3.64184373 +1   2.22251024 +1
  C    -0.91307666 +1  -4.89577767 +1   2.20991318 +1
  C    -2.25183082 +1  -4.89184530 +1   2.09264385 +1
  C    -2.99470048 +1  -3.65065026 +1   1.98996164 +1
  C    -2.37101450 +1  -2.46230674 +1   2.05767164 +1
  C    -0.89544715 +1  -2.32301722 +1   2.20827154 +1
  H    -0.32402795 +1  -5.80585766 +1   2.29072452 +1
  H    -2.82665712 +1  -5.81952012 +1   2.07188932 +1
  H    -4.07291107 +1  -3.72673767 +1   1.86268068 +1
  H    -2.91821740 +1  -1.52082600 +1   1.99126201 +1
  C    -0.57506871 +1  -1.51523283 +1   3.48351738 +1
  H    -0.51722908 +1  -1.72422850 +1   1.30763097 +1
  C     0.83917919 +1  -1.02631973 +1   3.47915894 +1
  H    -0.75388655 +1  -2.13804221 +1   4.38454405 +1
  H    -1.28669572 +1  -0.66120233 +1   3.56694322 +1
  C     1.15771970 +1   0.26712979 +1   3.49718307 +1
  H     1.59978858 +1  -1.81091794 +1   3.46828035 +1
  H     0.43504532 +1   1.06768715 +1   3.50115237 +1
  H     2.17447836 +1   0.62708074 +1   3.50551588 +1
  H     4.01972519 +1  -2.08216700 +1   0.19755313 +1
 
 TIME=     0.53
  REACTANTS AND PRODUCTS SWAPPED AROUND
 *+*+*+*+*+*+*+*+*+*+*+*+*+*+*+*+*+*+*+*+*+*+*+*+*+*+*+*+*+*+*+*+*+*+*+*+*+*+*+*+
            BAR SHORTENED BY       1.000 PERCENT
 GRADIENT CRITERION IN FLEPO =     1.707


          FOR POINT   14 FIRST  STRUCTURE
 DISTANCE A - B      1.690213
 HEAT               -8.434093
 GRADIENT NORM      26.537635
 DIRECTION COSINE    0.695007
 PM7 CHARGE=0 PRECISE XYZ
 Title

  O    -0.04722037 +1  -0.15666676 +1   0.20606117 +1
  C     1.30079913 +1  -0.05962772 +1   0.04953263 +1
  C     1.89564857 +1   1.20358959 +1   0.13692409 +1
  C     3.28629817 +1   1.28181282 +1   0.19166103 +1
  C     4.05761450 +1   0.11919303 +1   0.23872913 +1
  C     3.45531297 +1  -1.11606611 +1   0.02145337 +1
  C     2.08515705 +1  -1.18765232 +1  -0.24820442 +1
  H     1.28301752 +1   2.10104108 +1   0.13735019 +1
  H     3.78186594 +1   2.25174528 +1   0.20515926 +1
  H     5.13276562 +1   0.17892920 +1   0.38408079 +1
  C     1.63333914 +1  -2.23903893 +1  -1.20551900 +1
  H     1.36782374 +1  -2.64318366 +1   1.52644658 +1
  C     0.20640835 +1  -2.66767373 +1  -1.17403439 +1
  H     2.31737219 +1  -3.11391567 +1  -1.18014117 +1
  H     1.81419944 +1  -1.77361738 +1  -2.21845413 +1
  C    -0.13604435 +1  -3.95480423 +1  -1.19178968 +1
  H    -0.53124859 +1  -1.86508810 +1  -1.21419642 +1
  H     0.58002160 +1  -4.76305445 +1  -1.17936911 +1
  H    -1.15701746 +1  -4.29773983 +1  -1.21553957 +1
  O     1.11967569 +1  -3.49491053 +1   2.03314990 +1
  C    -0.23212650 +1  -3.58110408 +1   2.17448322 +1
  C    -0.84081654 +1  -4.83673903 +1   2.07130079 +1
  C    -2.23080875 +1  -4.89639314 +1   1.99792938 +1
  C    -2.98779790 +1  -3.72429154 +1   1.93884268 +1
  C    -2.37430753 +1  -2.49830915 +1   2.17593944 +1
  C    -1.00821332 +1  -2.44646708 +1   2.46678032 +1
  H    -0.24054073 +1  -5.74216332 +1   2.07986073 +1
  H    -2.73891419 +1  -5.85895116 +1   1.97432049 +1
  H    -4.06063676 +1  -3.76951464 +1   1.77622145 +1
  H    -2.96158220 +1  -1.58010960 +1   2.18261936 +1
  C    -0.55599573 +1  -1.41153441 +1   3.44336921 +1
  H    -0.28211492 +1  -1.01039679 +1   0.71290621 +1
  C     0.87066385 +1  -0.98152638 +1   3.41796304 +1
  H    -0.73453572 +1  -1.89617568 +1   4.45058183 +1
  H    -1.24185157 +1  -0.53674878 +1   3.43626022 +1
  C     1.21028258 +1   0.30582300 +1   3.46109558 +1
  H     1.61123955 +1  -1.78554858 +1   3.44191632 +1
  H     0.49282014 +1   1.11438294 +1   3.46759327 +1
  H     2.23055127 +1   0.65234409 +1   3.48997633 +1
  H     4.05579660 +1  -2.02491195 +1   0.01231164 +1
 
 *+*+*+*+*+*+*+*+*+*+*+*+*+*+*+*+*+*+*+*+*+*+*+*+*+*+*+*+*+*+*+*+*+*+*+*+*+*+*+*+
            BAR SHORTENED BY       1.000 PERCENT
 GRADIENT CRITERION IN FLEPO =     2.000


          FOR POINT   15 FIRST  STRUCTURE
 DISTANCE A - B      1.673311
 HEAT               -7.973567
 GRADIENT NORM      29.770742
 DIRECTION COSINE    0.969332
 PM7 CHARGE=0 PRECISE XYZ
 Title

  O    -0.04756389 +1  -0.15895940 +1   0.20599479 +1
  C     1.30029854 +1  -0.05951150 +1   0.04843148 +1
  C     1.89598790 +1   1.20426486 +1   0.13583825 +1
  C     3.28626636 +1   1.28017685 +1   0.18931233 +1
  C     4.05774873 +1   0.11707299 +1   0.23900095 +1
  C     3.45516988 +1  -1.11719680 +1   0.02675997 +1
  C     2.08433095 +1  -1.18848738 +1  -0.24482582 +1
  H     1.28443939 +1   2.10119452 +1   0.13262134 +1
  H     3.78295553 +1   2.24876357 +1   0.20256422 +1
  H     5.13278725 +1   0.17529074 +1   0.38231541 +1
  C     1.63340189 +1  -2.23805553 +1  -1.20547902 +1
  H     1.36334084 +1  -2.63828671 +1   1.52391606 +1
  C     0.20651769 +1  -2.66603293 +1  -1.17493549 +1
  H     2.31850638 +1  -3.11209124 +1  -1.18472572 +1
  H     1.81443074 +1  -1.76967367 +1  -2.21809153 +1
  C    -0.13501354 +1  -3.95394897 +1  -1.19289099 +1
  H    -0.53204948 +1  -1.86422540 +1  -1.21503636 +1
  H     0.58209831 +1  -4.76108613 +1  -1.18047342 +1
  H    -1.15589836 +1  -4.29839598 +1  -1.21549403 +1
  O     1.11960770 +1  -3.49411573 +1   2.02907792 +1
  C    -0.23125377 +1  -3.58131458 +1   2.17424305 +1
  C    -0.84118951 +1  -4.83714106 +1   2.07381081 +1
  C    -2.23148091 +1  -4.89552135 +1   2.00108977 +1
  C    -2.98766419 +1  -3.72153283 +1   1.94025264 +1
  C    -2.37309431 +1  -2.49495891 +1   2.17141696 +1
  C    -1.00685020 +1  -2.44521563 +1   2.46410370 +1
  H    -0.24452955 +1  -5.74297044 +1   2.08434386 +1
  H    -2.74094045 +1  -5.85761488 +1   1.97779777 +1
  H    -4.06078203 +1  -3.76592193 +1   1.78008120 +1
  H    -2.95947779 +1  -1.57800939 +1   2.17605079 +1
  C    -0.55598289 +1  -1.41439671 +1   3.44422830 +1
  H    -0.28451368 +1  -1.01521305 +1   0.71801574 +1
  C     0.87075959 +1  -0.98229713 +1   3.41720310 +1
  H    -0.73524631 +1  -1.90516229 +1   4.44854810 +1
  H    -1.24239062 +1  -0.54247399 +1   3.44019873 +1
  C     1.21043369 +1   0.30550009 +1   3.46360738 +1
  H     1.61040270 +1  -1.78455641 +1   3.44458030 +1
  H     0.49196650 +1   1.11258171 +1   3.46921304 +1
  H     2.22889822 +1   0.65167423 +1   3.49126939 +1
  H     4.05232605 +1  -2.02918945 +1   0.01748729 +1
 
 *+*+*+*+*+*+*+*+*+*+*+*+*+*+*+*+*+*+*+*+*+*+*+*+*+*+*+*+*+*+*+*+*+*+*+*+*+*+*+*+
            BAR SHORTENED BY       1.000 PERCENT
 GRADIENT CRITERION IN FLEPO =     2.000


          FOR POINT   16 FIRST  STRUCTURE
 DISTANCE A - B      1.656578
 HEAT               -7.507931
 GRADIENT NORM      28.826467
 DIRECTION COSINE    0.968924
 PM7 CHARGE=0 PRECISE XYZ
 Title

  O    -0.04828427 +1  -0.16212052 +1   0.20895512 +1
  C     1.29957591 +1  -0.05981430 +1   0.04790020 +1
  C     1.89624518 +1   1.20292944 +1   0.13087284 +1
  C     3.28663124 +1   1.27934762 +1   0.18523259 +1
  C     4.05806291 +1   0.11652099 +1   0.23941733 +1
  C     3.45455382 +1  -1.11859119 +1   0.02783182 +1
  C     2.08488274 +1  -1.18933301 +1  -0.24146596 +1
  H     1.28707291 +1   2.10247942 +1   0.12545983 +1
  H     3.78469783 +1   2.24773654 +1   0.19469153 +1
  H     5.13300566 +1   0.17514492 +1   0.37988183 +1
  C     1.63358407 +1  -2.23627871 +1  -1.20574897 +1
  H     1.36674233 +1  -2.63066291 +1   1.51668498 +1
  C     0.20672224 +1  -2.66571357 +1  -1.17577972 +1
  H     2.32032333 +1  -3.10879036 +1  -1.19086990 +1
  H     1.81253571 +1  -1.76118824 +1  -2.21636572 +1
  C    -0.13400125 +1  -3.95323494 +1  -1.19353287 +1
  H    -0.53173406 +1  -1.86354079 +1  -1.21583655 +1
  H     0.58452596 +1  -4.75970641 +1  -1.18162957 +1
  H    -1.15398958 +1  -4.29801925 +1  -1.21589502 +1
  O     1.11955741 +1  -3.49053250 +1   2.01426960 +1
  C    -0.23045466 +1  -3.58138979 +1   2.17093842 +1
  C    -0.84162772 +1  -4.83689713 +1   2.07752911 +1
  C    -2.23233807 +1  -4.89450440 +1   2.00287080 +1
  C    -2.98725694 +1  -3.72132271 +1   1.94199145 +1
  C    -2.37155131 +1  -2.49481641 +1   2.16826089 +1
  C    -1.00566503 +1  -2.44430904 +1   2.46078814 +1
  H    -0.24451167 +1  -5.74434253 +1   2.09065122 +1
  H    -2.74285597 +1  -5.85582916 +1   1.98549674 +1
  H    -4.06105872 +1  -3.76529763 +1   1.78501281 +1
  H    -2.95899165 +1  -1.57658465 +1   2.16702443 +1
  C    -0.55553636 +1  -1.41625614 +1   3.44501350 +1
  H    -0.28061008 +1  -1.01647341 +1   0.72176631 +1
  C     0.86999327 +1  -0.98271739 +1   3.42018472 +1
  H    -0.73349374 +1  -1.91157997 +1   4.44636295 +1
  H    -1.24358614 +1  -0.54350891 +1   3.44573001 +1
  C     1.20896616 +1   0.30477816 +1   3.46352362 +1
  H     1.61042494 +1  -1.78307409 +1   3.44423982 +1
  H     0.48743547 +1   1.10886479 +1   3.47093092 +1
  H     2.22882136 +1   0.65193836 +1   3.49246806 +1
  H     4.05318347 +1  -2.02918303 +1   0.02247937 +1
 
 TIME=     1.16
  REACTANTS AND PRODUCTS SWAPPED AROUND
 *+*+*+*+*+*+*+*+*+*+*+*+*+*+*+*+*+*+*+*+*+*+*+*+*+*+*+*+*+*+*+*+*+*+*+*+*+*+*+*+
            BAR SHORTENED BY       0.000 PERCENT
 GRADIENT CRITERION IN FLEPO =     2.000


          FOR POINT   17 SECOND STRUCTURE
 DISTANCE A - B      1.656578
 HEAT               -5.614188
 GRADIENT NORM       7.869430
 DIRECTION COSINE    0.581647
 PM7 CHARGE=0 PRECISE XYZ
 Title

  O     0.00016239 +1  -0.00555260 +1   0.00801624 +1
  C     1.21281769 +1  -0.00346727 +1   0.00386883 +1
  C     1.96431265 +1   1.26129217 +1   0.00915709 +1
  C     3.30411180 +1   1.27798188 +1   0.10488326 +1
  C     4.06563096 +1   0.04693997 +1   0.19476763 +1
  C     3.45743720 +1  -1.15005084 +1   0.13938094 +1
  C     1.98087400 +1  -1.31247321 +1   0.01667117 +1
  H     1.36017402 +1   2.16237647 +1  -0.06557262 +1
  H     3.86487589 +1   2.21331392 +1   0.11894146 +1
  H     5.14447829 +1   0.13864346 +1   0.30448273 +1
  C     1.65171774 +1  -2.13796742 +1  -1.24556915 +1
  H     1.63746879 +1  -1.90990424 +1   0.92677672 +1
  C     0.23637412 +1  -2.62466584 +1  -1.23217891 +1
  H     2.36000148 +1  -2.99095314 +1  -1.31355152 +1
  H     1.82807830 +1  -1.52928887 +1  -2.15519050 +1
  C    -0.08492510 +1  -3.91756779 +1  -1.22592264 +1
  H    -0.52322832 +1  -1.83877164 +1  -1.24002624 +1
  H     0.63564800 +1  -4.71966657 +1  -1.21249676 +1
  H    -1.10269561 +1  -4.27517326 +1  -1.22969213 +1
  O     1.06792502 +1  -3.65234110 +1   2.22707528 +1
  C    -0.14459336 +1  -3.63911187 +1   2.22164598 +1
  C    -0.91238948 +1  -4.89550421 +1   2.20937175 +1
  C    -2.25132886 +1  -4.89214525 +1   2.09144845 +1
  C    -2.99449672 +1  -3.65106972 +1   1.98988248 +1
  C    -2.37115971 +1  -2.46246946 +1   2.05794039 +1
  C    -0.89538598 +1  -2.32174517 +1   2.20761652 +1
  H    -0.32338598 +1  -5.80585795 +1   2.28981013 +1
  H    -2.82603114 +1  -5.81972201 +1   2.07114967 +1
  H    -4.07244955 +1  -3.72725819 +1   1.86199132 +1
  H    -2.91890218 +1  -1.52098343 +1   1.99358700 +1
  C    -0.57525387 +1  -1.51419533 +1   3.48343776 +1
  H    -0.51935829 +1  -1.72383388 +1   1.30922091 +1
  C     0.83938130 +1  -1.02572609 +1   3.47879409 +1
  H    -0.75375077 +1  -2.13647090 +1   4.38471985 +1
  H    -1.28603895 +1  -0.66183344 +1   3.56580382 +1
  C     1.15839703 +1   0.26778092 +1   3.49620989 +1
  H     1.59985916 +1  -1.81041650 +1   3.46734715 +1
  H     0.43600707 +1   1.06858686 +1   3.49965863 +1
  H     2.17535156 +1   0.62753173 +1   3.50547544 +1
  H     4.02010386 +1  -2.08242724 +1   0.19590994 +1
 
 TIME=     0.20
  REACTANTS AND PRODUCTS SWAPPED AROUND
 *+*+*+*+*+*+*+*+*+*+*+*+*+*+*+*+*+*+*+*+*+*+*+*+*+*+*+*+*+*+*+*+*+*+*+*+*+*+*+*+
            BAR SHORTENED BY       1.000 PERCENT
 GRADIENT CRITERION IN FLEPO =     0.974


          FOR POINT   18 FIRST  STRUCTURE
 DISTANCE A - B      1.640012
 HEAT               -7.047407
 GRADIENT NORM      29.927369
 DIRECTION COSINE    0.575207
 PM7 CHARGE=0 PRECISE XYZ
 Title

  O    -0.04824756 +1  -0.16312446 +1   0.21514182 +1
  C     1.29916888 +1  -0.06037329 +1   0.05301700 +1
  C     1.89577287 +1   1.20312059 +1   0.12988771 +1
  C     3.28719682 +1   1.27870786 +1   0.18168385 +1
  C     4.05765145 +1   0.11591621 +1   0.24199185 +1
  C     3.45375920 +1  -1.12035364 +1   0.03355270 +1
  C     2.08418876 +1  -1.18965559 +1  -0.23829225 +1
  H     1.28741198 +1   2.10214477 +1   0.11808895 +1
  H     3.78442990 +1   2.24748075 +1   0.18999727 +1
  H     5.13335105 +1   0.17573268 +1   0.38696669 +1
  C     1.63321484 +1  -2.23238920 +1  -1.20762975 +1
  H     1.36376991 +1  -2.62883316 +1   1.50862622 +1
  C     0.20743576 +1  -2.66481660 +1  -1.17513374 +1
  H     2.32096449 +1  -3.10336088 +1  -1.19799678 +1
  H     1.81015117 +1  -1.75016029 +1  -2.21438409 +1
  C    -0.13245685 +1  -3.95273122 +1  -1.19373249 +1
  H    -0.53219334 +1  -1.86408179 +1  -1.21392182 +1
  H     0.58570448 +1  -4.75970690 +1  -1.18373039 +1
  H    -1.15308380 +1  -4.29843937 +1  -1.21672722 +1
  O     1.11887232 +1  -3.48828549 +1   2.01274273 +1
  C    -0.22951098 +1  -3.58062306 +1   2.16386278 +1
  C    -0.84070515 +1  -4.83671471 +1   2.07879965 +1
  C    -2.23250269 +1  -4.89356958 +1   2.01024066 +1
  C    -2.98724764 +1  -3.72093643 +1   1.94134735 +1
  C    -2.37111755 +1  -2.49362059 +1   2.16300805 +1
  C    -1.00564411 +1  -2.44506571 +1   2.45628281 +1
  H    -0.24462166 +1  -5.74407329 +1   2.09777632 +1
  H    -2.74317347 +1  -5.85545739 +1   1.99739963 +1
  H    -4.06073015 +1  -3.76569760 +1   1.78138336 +1
  H    -2.95540214 +1  -1.57361805 +1   2.16013577 +1
  C    -0.55612467 +1  -1.42147135 +1   3.44486954 +1
  H    -0.28100288 +1  -1.02330516 +1   0.72126805 +1
  C     0.86892775 +1  -0.98655174 +1   3.42096545 +1
  H    -0.73457269 +1  -1.92008538 +1   4.44407375 +1
  H    -1.24443804 +1  -0.54924315 +1   3.44996738 +1
  C     1.20455561 +1   0.30200879 +1   3.46406130 +1
  H     1.61138567 +1  -1.78541422 +1   3.44238834 +1
  H     0.48252075 +1   1.10547921 +1   3.46987965 +1
  H     2.22381956 +1   0.65212886 +1   3.49136445 +1
  H     4.05116266 +1  -2.03150817 +1   0.03056006 +1
 
 *+*+*+*+*+*+*+*+*+*+*+*+*+*+*+*+*+*+*+*+*+*+*+*+*+*+*+*+*+*+*+*+*+*+*+*+*+*+*+*+
            BAR SHORTENED BY       1.000 PERCENT
 GRADIENT CRITERION IN FLEPO =     2.000


          FOR POINT   19 FIRST  STRUCTURE
 DISTANCE A - B      1.623612
 HEAT               -6.540358
 GRADIENT NORM      32.959789
 DIRECTION COSINE    0.984099
 PM7 CHARGE=0 PRECISE XYZ
 Title

  O    -0.04833437 +1  -0.16474330 +1   0.21696464 +1
  C     1.29846218 +1  -0.06078785 +1   0.05242239 +1
  C     1.89641709 +1   1.20297160 +1   0.12627968 +1
  C     3.28717378 +1   1.27651427 +1   0.17959179 +1
  C     4.05781286 +1   0.11361755 +1   0.24208437 +1
  C     3.45359210 +1  -1.12133578 +1   0.03885999 +1
  C     2.08353603 +1  -1.19048965 +1  -0.23562218 +1
  H     1.28880727 +1   2.10299353 +1   0.11190628 +1
  H     3.78559032 +1   2.24487146 +1   0.18099384 +1
  H     5.13290331 +1   0.17186697 +1   0.38469611 +1
  C     1.63322113 +1  -2.23099918 +1  -1.20744062 +1
  H     1.36596028 +1  -2.62636489 +1   1.50535769 +1
  C     0.20782223 +1  -2.66224747 +1  -1.17705014 +1
  H     2.32182503 +1  -3.10022631 +1  -1.20181428 +1
  H     1.80932875 +1  -1.74568166 +1  -2.21421537 +1
  C    -0.12978255 +1  -3.95093740 +1  -1.19669963 +1
  H    -0.53263819 +1  -1.86351703 +1  -1.21739445 +1
  H     0.58791894 +1  -4.75670113 +1  -1.18716241 +1
  H    -1.14932489 +1  -4.29787583 +1  -1.21764087 +1
  O     1.11954654 +1  -3.48748127 +1   2.01123551 +1
  C    -0.22921002 +1  -3.57977604 +1   2.16513736 +1
  C    -0.84140967 +1  -4.83655677 +1   2.08330745 +1
  C    -2.23258245 +1  -4.89262053 +1   2.01178028 +1
  C    -2.98750628 +1  -3.71969542 +1   1.94127172 +1
  C    -2.37096477 +1  -2.49247507 +1   2.15754958 +1
  C    -1.00476607 +1  -2.44182451 +1   2.45139306 +1
  H    -0.24730912 +1  -5.74492232 +1   2.10290492 +1
  H    -2.74436273 +1  -5.85394232 +1   2.00234569 +1
  H    -4.06110844 +1  -3.76480744 +1   1.78311672 +1
  H    -2.95402825 +1  -1.57182501 +1   2.15400344 +1
  C    -0.55572390 +1  -1.42249576 +1   3.44509690 +1
  H    -0.28281974 +1  -1.02616060 +1   0.72625541 +1
  C     0.86885673 +1  -0.98730478 +1   3.42208112 +1
  H    -0.73302786 +1  -1.92720137 +1   4.44121735 +1
  H    -1.24544863 +1  -0.55331234 +1   3.45376248 +1
  C     1.20339838 +1   0.30131602 +1   3.46594204 +1
  H     1.61108803 +1  -1.78627536 +1   3.44533346 +1
  H     0.48119863 +1   1.10429672 +1   3.47187937 +1
  H     2.22058981 +1   0.65108812 +1   3.49420635 +1
  H     4.04957076 +1  -2.03389346 +1   0.03594975 +1
 
 *+*+*+*+*+*+*+*+*+*+*+*+*+*+*+*+*+*+*+*+*+*+*+*+*+*+*+*+*+*+*+*+*+*+*+*+*+*+*+*+
            BAR SHORTENED BY       1.000 PERCENT
 GRADIENT CRITERION IN FLEPO =     2.000


          FOR POINT   20 FIRST  STRUCTURE
 DISTANCE A - B      1.607376
 HEAT               -6.013427
 GRADIENT NORM      34.695356
 DIRECTION COSINE    0.987670
 PM7 CHARGE=0 PRECISE XYZ
 Title

  O    -0.04978518 +1  -0.16818099 +1   0.22206220 +1
  C     1.29731433 +1  -0.06118168 +1   0.05285215 +1
  C     1.89680911 +1   1.20251804 +1   0.12401770 +1
  C     3.28745590 +1   1.27656205 +1   0.17644224 +1
  C     4.05798476 +1   0.11311995 +1   0.24197327 +1
  C     3.45311197 +1  -1.12238226 +1   0.03972645 +1
  C     2.08276684 +1  -1.19202920 +1  -0.23190575 +1
  H     1.29130627 +1   2.10369217 +1   0.10642834 +1
  H     3.79009530 +1   2.24434197 +1   0.17797071 +1
  H     5.13375151 +1   0.17185413 +1   0.38239573 +1
  C     1.63374741 +1  -2.22907225 +1  -1.20801090 +1
  H     1.36195007 +1  -2.62164174 +1   1.49943770 +1
  C     0.20846040 +1  -2.66206169 +1  -1.17995876 +1
  H     2.32333687 +1  -3.09950820 +1  -1.21013365 +1
  H     1.80937862 +1  -1.73643313 +1  -2.21316971 +1
  C    -0.12928669 +1  -3.95044684 +1  -1.20061903 +1
  H    -0.53280946 +1  -1.86281755 +1  -1.21810361 +1
  H     0.58945838 +1  -4.75635052 +1  -1.18957545 +1
  H    -1.14878887 +1  -4.29782542 +1  -1.22304454 +1
  O     1.11970606 +1  -3.48459454 +1   2.00875303 +1
  C    -0.22845285 +1  -3.58009243 +1   2.16547104 +1
  C    -0.84204901 +1  -4.83575158 +1   2.08498291 +1
  C    -2.23301570 +1  -4.89217244 +1   2.01613283 +1
  C    -2.98772736 +1  -3.71909061 +1   1.94101570 +1
  C    -2.37064713 +1  -2.49131621 +1   2.15563856 +1
  C    -1.00464991 +1  -2.44104197 +1   2.44803968 +1
  H    -0.24898604 +1  -5.74594068 +1   2.11008457 +1
  H    -2.74590666 +1  -5.85289708 +1   2.00410610 +1
  H    -4.06285148 +1  -3.76368896 +1   1.78544578 +1
  H    -2.95385489 +1  -1.57105665 +1   2.14944112 +1
  C    -0.55617833 +1  -1.42419363 +1   3.44476666 +1
  H    -0.28283626 +1  -1.03119225 +1   0.73293455 +1
  C     0.86851570 +1  -0.98822690 +1   3.42352690 +1
  H    -0.73320245 +1  -1.93456875 +1   4.43993508 +1
  H    -1.24684541 +1  -0.55432653 +1   3.45751918 +1
  C     1.20236293 +1   0.30050200 +1   3.46704676 +1
  H     1.61053844 +1  -1.78758083 +1   3.44818195 +1
  H     0.47969941 +1   1.10283729 +1   3.47439847 +1
  H     2.22044597 +1   0.65112640 +1   3.49852765 +1
  H     4.04887567 +1  -2.03499712 +1   0.04031023 +1
 
 TIME=     1.36
  REACTANTS AND PRODUCTS SWAPPED AROUND
 *+*+*+*+*+*+*+*+*+*+*+*+*+*+*+*+*+*+*+*+*+*+*+*+*+*+*+*+*+*+*+*+*+*+*+*+*+*+*+*+
            BAR SHORTENED BY       0.000 PERCENT
 GRADIENT CRITERION IN FLEPO =     2.000


          FOR POINT   21 SECOND STRUCTURE
 DISTANCE A - B      1.607376
 HEAT               -5.634096
 GRADIENT NORM       5.275240
 DIRECTION COSINE    0.009619
 PM7 CHARGE=0 PRECISE XYZ
 Title

  O     0.00073139 +1  -0.01016295 +1   0.01117997 +1
  C     1.21230419 +1  -0.00646684 +1   0.00650953 +1
  C     1.96371432 +1   1.26021402 +1   0.00771369 +1
  C     3.30408670 +1   1.27757158 +1   0.10716646 +1
  C     4.06529714 +1   0.04692195 +1   0.19688205 +1
  C     3.45826821 +1  -1.14979312 +1   0.13789469 +1
  C     1.98189957 +1  -1.31551812 +1   0.01843903 +1
  H     1.35951989 +1   2.16246578 +1  -0.06254864 +1
  H     3.86544466 +1   2.21377561 +1   0.12222467 +1
  H     5.14406528 +1   0.13595163 +1   0.30717276 +1
  C     1.65140399 +1  -2.14045361 +1  -1.24465210 +1
  H     1.63410633 +1  -1.90747626 +1   0.92580952 +1
  C     0.23599341 +1  -2.62574358 +1  -1.23219168 +1
  H     2.36022309 +1  -2.99174601 +1  -1.31431733 +1
  H     1.83019697 +1  -1.52859285 +1  -2.15575781 +1
  C    -0.08525743 +1  -3.91766908 +1  -1.22506590 +1
  H    -0.52259779 +1  -1.83875768 +1  -1.23611668 +1
  H     0.63558722 +1  -4.72036872 +1  -1.21146001 +1
  H    -1.10283938 +1  -4.27433481 +1  -1.22884518 +1
  O     1.06751284 +1  -3.64905978 +1   2.22514699 +1
  C    -0.14395903 +1  -3.63985640 +1   2.22050715 +1
  C    -0.91126575 +1  -4.89385625 +1   2.20743844 +1
  C    -2.24926718 +1  -4.89221040 +1   2.08894650 +1
  C    -2.99360852 +1  -3.65098544 +1   1.98961850 +1
  C    -2.37189305 +1  -2.46256988 +1   2.05904170 +1
  C    -0.89567768 +1  -2.32003252 +1   2.20631740 +1
  H    -0.32000485 +1  -5.80343749 +1   2.28815681 +1
  H    -2.82485921 +1  -5.81949714 +1   2.06892848 +1
  H    -4.07042615 +1  -3.72624941 +1   1.86137872 +1
  H    -2.91937453 +1  -1.52071365 +1   1.99573295 +1
  C    -0.57546597 +1  -1.51203187 +1   3.48327064 +1
  H    -0.52144157 +1  -1.72545999 +1   1.31469875 +1
  C     0.83970633 +1  -1.02541557 +1   3.47863255 +1
  H    -0.75446054 +1  -2.13577429 +1   4.38488114 +1
  H    -1.28479052 +1  -0.66273290 +1   3.56352218 +1
  C     1.15936894 +1   0.26777753 +1   3.49637255 +1
  H     1.59857446 +1  -1.81152095 +1   3.46808604 +1
  H     0.43715432 +1   1.06885212 +1   3.49936330 +1
  H     2.17605660 +1   0.62653933 +1   3.50491092 +1
  H     4.02126624 +1  -2.08348376 +1   0.19141363 +1
 
 TIME=     0.29
  REACTANTS AND PRODUCTS SWAPPED AROUND
 *+*+*+*+*+*+*+*+*+*+*+*+*+*+*+*+*+*+*+*+*+*+*+*+*+*+*+*+*+*+*+*+*+*+*+*+*+*+*+*+
            BAR SHORTENED BY       1.000 PERCENT
 GRADIENT CRITERION IN FLEPO =     0.455
           THERE HAVE BEEN 3 ATTEMPTS TO REDUCE THE GRADIENT.
           DURING THESE ATTEMPTS THE ENERGY DROPPED BY LESS THAN 0.0 KCAL/MOLE
           FURTHER CALCULATION IS NOT JUSTIFIED AT THIS TIME.


          FOR POINT   22 FIRST  STRUCTURE
 DISTANCE A - B      1.591302
 HEAT               -5.539828
 GRADIENT NORM      34.259175
 DIRECTION COSINE    0.033031
 PM7 CHARGE=0 PRECISE XYZ
 Title

  O    -0.04763336 +1  -0.17936864 +1   0.23814220 +1
  C     1.29678977 +1  -0.07273722 +1   0.06601880 +1
  C     1.89267265 +1   1.19213183 +1   0.13054971 +1
  C     3.28342095 +1   1.26813170 +1   0.18182421 +1
  C     4.05533772 +1   0.10621603 +1   0.25147183 +1
  C     3.45366299 +1  -1.13159728 +1   0.04927617 +1
  C     2.08449806 +1  -1.20084221 +1  -0.22486463 +1
  H     1.28394883 +1   2.09166111 +1   0.10875009 +1
  H     3.78118484 +1   2.23719886 +1   0.18141359 +1
  H     5.13067503 +1   0.16837905 +1   0.39333552 +1
  C     1.63479609 +1  -2.22641491 +1  -1.21186535 +1
  H     1.36331451 +1  -2.61371209 +1   1.49405460 +1
  C     0.20974769 +1  -2.66114127 +1  -1.17863245 +1
  H     2.32555098 +1  -3.09588493 +1  -1.22205286 +1
  H     1.80712230 +1  -1.72483192 +1  -2.21094139 +1
  C    -0.12569210 +1  -3.95001948 +1  -1.19535019 +1
  H    -0.53262080 +1  -1.86220216 +1  -1.21371312 +1
  H     0.59520184 +1  -4.75384130 +1  -1.18564514 +1
  H    -1.14499983 +1  -4.29972156 +1  -1.21534564 +1
  O     1.11917242 +1  -3.47935033 +1   1.99781754 +1
  C    -0.22732561 +1  -3.57416636 +1   2.16005168 +1
  C    -0.83824659 +1  -4.83144775 +1   2.08643412 +1
  C    -2.22950727 +1  -4.88825449 +1   2.01719404 +1
  C    -2.98503375 +1  -3.71607030 +1   1.93785392 +1
  C    -2.37032534 +1  -2.48660892 +1   2.15072930 +1
  C    -1.00520480 +1  -2.43769422 +1   2.44786770 +1
  H    -0.24220643 +1  -5.73881692 +1   2.11564489 +1
  H    -2.74071804 +1  -5.85017240 +1   2.01174500 +1
  H    -4.05834190 +1  -3.76323695 +1   1.77921313 +1
  H    -2.95364992 +1  -1.56633262 +1   2.13744685 +1
  C    -0.55620295 +1  -1.42617354 +1   3.44880568 +1
  H    -0.27878219 +1  -1.04118205 +1   0.75204302 +1
  C     0.86781213 +1  -0.98903991 +1   3.42336482 +1
  H    -0.72855825 +1  -1.94110746 +1   4.44103613 +1
  H    -1.24815157 +1  -0.55749590 +1   3.46905535 +1
  C     1.20147397 +1   0.29951178 +1   3.46632465 +1
  H     1.61065887 +1  -1.78776403 +1   3.44383994 +1
  H     0.47932247 +1   1.10263815 +1   3.47246914 +1
  H     2.21972458 +1   0.65047226 +1   3.49163884 +1
  H     4.05051991 +1  -2.04320185 +1   0.05289013 +1
 
 TIME=     1.46
  REACTANTS AND PRODUCTS SWAPPED AROUND
 *+*+*+*+*+*+*+*+*+*+*+*+*+*+*+*+*+*+*+*+*+*+*+*+*+*+*+*+*+*+*+*+*+*+*+*+*+*+*+*+
            BAR SHORTENED BY       1.000 PERCENT
 GRADIENT CRITERION IN FLEPO =     2.000
 

                    SINCE COS WAS JUST RESET,THE SEARCH IS BEING ENDED


          FOR POINT   23 SECOND STRUCTURE
 DISTANCE A - B      1.575389
 HEAT               -5.139506
 GRADIENT NORM      12.309833
 DIRECTION COSINE    0.720856
 PM7 CHARGE=0 PRECISE XYZ
 Title

  O     0.00029024 +1  -0.01185605 +1   0.01362297 +1
  C     1.21311160 +1  -0.00711462 +1   0.00718133 +1
  C     1.96302104 +1   1.25950331 +1   0.00910015 +1
  C     3.30384579 +1   1.27749166 +1   0.10817391 +1
  C     4.06520501 +1   0.04748769 +1   0.19745994 +1
  C     3.45826110 +1  -1.14965525 +1   0.13707261 +1
  C     1.98285591 +1  -1.31449313 +1   0.01634786 +1
  H     1.35874336 +1   2.15684048 +1  -0.06064610 +1
  H     3.86457298 +1   2.21400355 +1   0.12321579 +1
  H     5.14397775 +1   0.13649384 +1   0.30820247 +1
  C     1.65128248 +1  -2.14124826 +1  -1.24434080 +1
  H     1.63171733 +1  -1.91432436 +1   0.93098492 +1
  C     0.23574438 +1  -2.62606552 +1  -1.23161734 +1
  H     2.35987682 +1  -2.99292017 +1  -1.31336302 +1
  H     1.82993953 +1  -1.53058277 +1  -2.15626427 +1
  C    -0.08567474 +1  -3.91801926 +1  -1.22478117 +1
  H    -0.52270092 +1  -1.83903682 +1  -1.23591452 +1
  H     0.63505406 +1  -4.72072284 +1  -1.21108931 +1
  H    -1.10333490 +1  -4.27463304 +1  -1.22868616 +1
  O     1.06799779 +1  -3.64728254 +1   2.22278665 +1
  C    -0.14474210 +1  -3.63908248 +1   2.21954627 +1
  C    -0.91054096 +1  -4.89326519 +1   2.20596248 +1
  C    -2.24907919 +1  -4.89220739 +1   2.08819576 +1
  C    -2.99349008 +1  -3.65163567 +1   1.98905113 +1
  C    -2.37189387 +1  -2.46279409 +1   2.05995495 +1
  C    -0.89671753 +1  -2.32090096 +1   2.20848008 +1
  H    -0.31913612 +1  -5.80278194 +1   2.28632838 +1
  H    -2.82393926 +1  -5.81989814 +1   2.06820581 +1
  H    -4.07034919 +1  -3.72671578 +1   1.86048059 +1
  H    -2.91993338 +1  -1.52118258 +1   1.99878840 +1
  C    -0.57522733 +1  -1.51120991 +1   3.48290436 +1
  H    -0.51943785 +1  -1.71873862 +1   1.30923820 +1
  C     0.84001768 +1  -1.02496077 +1   3.47803073 +1
  H    -0.75417916 +1  -2.13377533 +1   4.38538388 +1
  H    -1.28444946 +1  -0.66164075 +1   3.56237921 +1
  C     1.15981570 +1   0.26813986 +1   3.49570654 +1
  H     1.59871671 +1  -1.81110939 +1   3.46760450 +1
  H     0.43776859 +1   1.06930893 +1   3.49889595 +1
  H     2.17681262 +1   0.62692765 +1   3.50439175 +1
  H     4.02163075 +1  -2.08307890 +1   0.18993217 +1
 
 TIME=     0.62
  REACTANTS AND PRODUCTS SWAPPED AROUND
 *+*+*+*+*+*+*+*+*+*+*+*+*+*+*+*+*+*+*+*+*+*+*+*+*+*+*+*+*+*+*+*+*+*+*+*+*+*+*+*+
            BAR SHORTENED BY       1.000 PERCENT
 GRADIENT CRITERION IN FLEPO =     1.862


          FOR POINT   24 FIRST  STRUCTURE
 DISTANCE A - B      1.559636
 HEAT               -4.532873
 GRADIENT NORM      38.651375
 DIRECTION COSINE    0.731111
 PM7 CHARGE=0 PRECISE XYZ
 Title

  O    -0.04791691 +1  -0.17964328 +1   0.23783434 +1
  C     1.29606823 +1  -0.07219187 +1   0.06529824 +1
  C     1.89321945 +1   1.19301352 +1   0.12741736 +1
  C     3.28387733 +1   1.26801256 +1   0.17563840 +1
  C     4.05552245 +1   0.10523765 +1   0.24824334 +1
  C     3.45314751 +1  -1.13218540 +1   0.05220858 +1
  C     2.08346874 +1  -1.20181749 +1  -0.22191449 +1
  H     1.28575440 +1   2.09580397 +1   0.10458340 +1
  H     3.78367784 +1   2.23605916 +1   0.17754965 +1
  H     5.13077660 +1   0.16275978 +1   0.39073268 +1
  C     1.63491162 +1  -2.22504677 +1  -1.21186953 +1
  H     1.36568243 +1  -2.60968897 +1   1.48856215 +1
  C     0.21007201 +1  -2.66071529 +1  -1.18033373 +1
  H     2.32604624 +1  -3.09268359 +1  -1.22433693 +1
  H     1.80634246 +1  -1.72023260 +1  -2.20934932 +1
  C    -0.12532717 +1  -3.94944867 +1  -1.19752939 +1
  H    -0.53196760 +1  -1.86138552 +1  -1.21528194 +1
  H     0.59579740 +1  -4.75319119 +1  -1.19418832 +1
  H    -1.14433952 +1  -4.29909936 +1  -1.21656870 +1
  O     1.11940704 +1  -3.47862697 +1   1.99730426 +1
  C    -0.22668529 +1  -3.57463201 +1   2.16074920 +1
  C    -0.83896737 +1  -4.83202861 +1   2.08997227 +1
  C    -2.23037123 +1  -4.88818634 +1   2.02218453 +1
  C    -2.98532942 +1  -3.71547998 +1   1.93940226 +1
  C    -2.36996717 +1  -2.48623213 +1   2.14701517 +1
  C    -1.00407547 +1  -2.43678917 +1   2.44428879 +1
  H    -0.24679870 +1  -5.74049045 +1   2.11942533 +1
  H    -2.74442764 +1  -5.84929251 +1   2.01386904 +1
  H    -4.05989947 +1  -3.76223053 +1   1.78282188 +1
  H    -2.95280344 +1  -1.56548520 +1   2.13359273 +1
  C    -0.55658603 +1  -1.42740592 +1   3.44906699 +1
  H    -0.28109208 +1  -1.04227173 +1   0.75644333 +1
  C     0.86728997 +1  -0.98954009 +1   3.42447340 +1
  H    -0.73009376 +1  -1.94665416 +1   4.43823991 +1
  H    -1.25278679 +1  -0.56224244 +1   3.47102405 +1
  C     1.19995192 +1   0.29926603 +1   3.46653888 +1
  H     1.60969228 +1  -1.78846107 +1   3.44604247 +1
  H     0.47754767 +1   1.10197000 +1   3.47323839 +1
  H     2.21860574 +1   0.64970638 +1   3.49210067 +1
  H     4.04912207 +1  -2.04441283 +1   0.05615625 +1
 
 TIME=     0.26
  REACTANTS AND PRODUCTS SWAPPED AROUND
 *+*+*+*+*+*+*+*+*+*+*+*+*+*+*+*+*+*+*+*+*+*+*+*+*+*+*+*+*+*+*+*+*+*+*+*+*+*+*+*+
            BAR SHORTENED BY       1.000 PERCENT
 GRADIENT CRITERION IN FLEPO =     2.000


          FOR POINT   25 SECOND STRUCTURE
 DISTANCE A - B      1.544039
 HEAT               -5.128907
 GRADIENT NORM       8.250272
 DIRECTION COSINE    0.663002
 PM7 CHARGE=0 PRECISE XYZ
 Title

  O     0.00077536 +1  -0.01583678 +1   0.02181630 +1
  C     1.21331470 +1  -0.01042524 +1   0.01280652 +1
  C     1.96252178 +1   1.25649867 +1   0.01504984 +1
  C     3.30275113 +1   1.27773257 +1   0.11575741 +1
  C     4.06527340 +1   0.04775449 +1   0.19939291 +1
  C     3.45937965 +1  -1.14993864 +1   0.13590021 +1
  C     1.98290132 +1  -1.31996060 +1   0.01862684 +1
  H     1.35601054 +1   2.15719559 +1  -0.05277488 +1
  H     3.86051790 +1   2.21551147 +1   0.13152828 +1
  H     5.14397958 +1   0.13995245 +1   0.31358636 +1
  C     1.65142126 +1  -2.14208115 +1  -1.24418752 +1
  H     1.63494118 +1  -1.92304353 +1   0.92298121 +1
  C     0.23518528 +1  -2.62621282 +1  -1.22994635 +1
  H     2.35838047 +1  -2.99689714 +1  -1.30973953 +1
  H     1.82881407 +1  -1.53533765 +1  -2.15620500 +1
  C    -0.08706824 +1  -3.91902826 +1  -1.22448102 +1
  H    -0.52620286 +1  -1.83993749 +1  -1.23578947 +1
  H     0.63242850 +1  -4.72207004 +1  -1.21112852 +1
  H    -1.10544342 +1  -4.27613573 +1  -1.22846195 +1
  O     1.06771267 +1  -3.64291983 +1   2.21640158 +1
  C    -0.14473725 +1  -3.63587483 +1   2.21453434 +1
  C    -0.90965326 +1  -4.89284741 +1   2.20198163 +1
  C    -2.24837367 +1  -4.89385846 +1   2.08318144 +1
  C    -2.99297924 +1  -3.65300769 +1   1.98625712 +1
  C    -2.37262703 +1  -2.46407316 +1   2.06183557 +1
  C    -0.89716997 +1  -2.31776390 +1   2.20690352 +1
  H    -0.31393739 +1  -5.80015847 +1   2.28070777 +1
  H    -2.81891035 +1  -5.82389400 +1   2.06344747 +1
  H    -4.07083864 +1  -3.73088277 +1   1.85720119 +1
  H    -2.92377647 +1  -1.52410526 +1   2.00647116 +1
  C    -0.57497259 +1  -1.51020316 +1   3.48223210 +1
  H    -0.52468406 +1  -1.70923518 +1   1.31199395 +1
[...]
     15          5  C    CARTESIAN Z     0.472162     -0.098664  KCAL/ANGSTROM
     16          6  C    CARTESIAN X     3.384227      0.210941  KCAL/ANGSTROM
     17          6  C    CARTESIAN Y    -1.219297     -0.065515  KCAL/ANGSTROM
     18          6  C    CARTESIAN Z     0.198216     -0.185447  KCAL/ANGSTROM
     19          7  C    CARTESIAN X     1.966742      0.249825  KCAL/ANGSTROM
     20          7  C    CARTESIAN Y    -1.410316     -0.392564  KCAL/ANGSTROM
     21          7  C    CARTESIAN Z     0.058036     -0.255243  KCAL/ANGSTROM
     22          8  H    CARTESIAN X     1.054596      0.103468  KCAL/ANGSTROM
     23          8  H    CARTESIAN Y     1.887968     -0.161817  KCAL/ANGSTROM
     24          8  H    CARTESIAN Z     0.517111      0.125278  KCAL/ANGSTROM
     25          9  H    CARTESIAN X     3.548175      0.142808  KCAL/ANGSTROM
     26          9  H    CARTESIAN Y     2.128097     -0.041206  KCAL/ANGSTROM
     27          9  H    CARTESIAN Z     0.680817     -0.189451  KCAL/ANGSTROM
     28         10  H    CARTESIAN X     4.993019      0.074713  KCAL/ANGSTROM
     29         10  H    CARTESIAN Y     0.136744     -0.071584  KCAL/ANGSTROM
     30         10  H    CARTESIAN Z     0.597007     -0.535850  KCAL/ANGSTROM
     31         11  C    CARTESIAN X     1.598043     -0.193498  KCAL/ANGSTROM
     32         11  C    CARTESIAN Y    -2.374550      0.566609  KCAL/ANGSTROM
     33         11  C    CARTESIAN Z    -1.053625     -0.303399  KCAL/ANGSTROM
     34         12  H    CARTESIAN X     1.642110     -0.378256  KCAL/ANGSTROM
     35         12  H    CARTESIAN Y    -2.254509     -0.134644  KCAL/ANGSTROM
     36         12  H    CARTESIAN Z     1.242687     -0.455176  KCAL/ANGSTROM
     37         13  C    CARTESIAN X     0.150828      0.012783  KCAL/ANGSTROM
     38         13  C    CARTESIAN Y    -2.733717     -0.207490  KCAL/ANGSTROM
     39         13  C    CARTESIAN Z    -1.149528     -0.296332  KCAL/ANGSTROM
     40         14  H    CARTESIAN X     2.224886      0.533835  KCAL/ANGSTROM
     41         14  H    CARTESIAN Y    -3.292409     -0.945439  KCAL/ANGSTROM
     42         14  H    CARTESIAN Z    -0.976860     -0.929208  KCAL/ANGSTROM
     43         15  H    CARTESIAN X     1.897295     -0.254932  KCAL/ANGSTROM
     44         15  H    CARTESIAN Y    -1.896948      0.086041  KCAL/ANGSTROM
     45         15  H    CARTESIAN Z    -2.020144      0.122768  KCAL/ANGSTROM
     46         16  C    CARTESIAN X    -0.264916      0.077288  KCAL/ANGSTROM
     47         16  C    CARTESIAN Y    -3.999091     -0.052336  KCAL/ANGSTROM
     48         16  C    CARTESIAN Z    -1.194416     -0.047338  KCAL/ANGSTROM
     49         17  H    CARTESIAN X    -0.538244     -0.182992  KCAL/ANGSTROM
     50         17  H    CARTESIAN Y    -1.891073     -0.229876  KCAL/ANGSTROM
     51         17  H    CARTESIAN Z    -1.224850     -0.330336  KCAL/ANGSTROM
     52         18  H    CARTESIAN X     0.396117      0.840859  KCAL/ANGSTROM
     53         18  H    CARTESIAN Y    -4.849647     -0.105003  KCAL/ANGSTROM
     54         18  H    CARTESIAN Z    -1.123439      0.039718  KCAL/ANGSTROM
     55         19  H    CARTESIAN X    -1.299695      0.189861  KCAL/ANGSTROM
     56         19  H    CARTESIAN Y    -4.282930     -0.400956  KCAL/ANGSTROM
     57         19  H    CARTESIAN Z    -1.294895      0.024753  KCAL/ANGSTROM
     58         20  O    CARTESIAN X     1.216199     -0.328514  KCAL/ANGSTROM
     59         20  O    CARTESIAN Y    -3.252409     -0.286742  KCAL/ANGSTROM
     60         20  O    CARTESIAN Z     1.819224      0.031142  KCAL/ANGSTROM
     61         21  C    CARTESIAN X    -0.054031     -0.216905  KCAL/ANGSTROM
     62         21  C    CARTESIAN Y    -3.338019     -0.489044  KCAL/ANGSTROM
     63         21  C    CARTESIAN Z     1.973686     -0.182091  KCAL/ANGSTROM
     64         22  C    CARTESIAN X    -0.650344     -0.548812  KCAL/ANGSTROM
     65         22  C    CARTESIAN Y    -4.640840     -0.391370  KCAL/ANGSTROM
     66         22  C    CARTESIAN Z     1.848026     -0.298702  KCAL/ANGSTROM
     67         23  C    CARTESIAN X    -2.007810     -0.675103  KCAL/ANGSTROM
     68         23  C    CARTESIAN Y    -4.755825      0.103143  KCAL/ANGSTROM
     69         23  C    CARTESIAN Z     1.766383     -0.040447  KCAL/ANGSTROM
     70         24  C    CARTESIAN X    -2.848629      0.292742  KCAL/ANGSTROM
     71         24  C    CARTESIAN Y    -3.607742     -0.102399  KCAL/ANGSTROM
     72         24  C    CARTESIAN Z     1.826292     -0.016015  KCAL/ANGSTROM
     73         25  C    CARTESIAN X    -2.307659     -0.695331  KCAL/ANGSTROM
     74         25  C    CARTESIAN Y    -2.380403     -0.388120  KCAL/ANGSTROM
     75         25  C    CARTESIAN Z     2.080884     -0.218492  KCAL/ANGSTROM
     76         26  C    CARTESIAN X    -0.887825     -0.377348  KCAL/ANGSTROM
     77         26  C    CARTESIAN Y    -2.190192      0.320953  KCAL/ANGSTROM
     78         26  C    CARTESIAN Z     2.213851      0.328450  KCAL/ANGSTROM
     79         27  H    CARTESIAN X     0.014175     -0.421364  KCAL/ANGSTROM
     80         27  H    CARTESIAN Y    -5.498956     -0.506250  KCAL/ANGSTROM
     81         27  H    CARTESIAN Z     1.801967     -0.502162  KCAL/ANGSTROM
     82         28  H    CARTESIAN X    -2.480291     -0.283653  KCAL/ANGSTROM
     83         28  H    CARTESIAN Y    -5.734277     -0.112046  KCAL/ANGSTROM
     84         28  H    CARTESIAN Z     1.652056     -0.018798  KCAL/ANGSTROM
     85         29  H    CARTESIAN X    -3.919748     -0.473716  KCAL/ANGSTROM
     86         29  H    CARTESIAN Y    -3.737906     -0.042287  KCAL/ANGSTROM
     87         29  H    CARTESIAN Z     1.703264      0.086532  KCAL/ANGSTROM
     88         30  H    CARTESIAN X    -2.947489     -0.184545  KCAL/ANGSTROM
     89         30  H    CARTESIAN Y    -1.502993     -0.026816  KCAL/ANGSTROM
     90         30  H    CARTESIAN Z     2.207634      0.091437  KCAL/ANGSTROM
     91         31  C    CARTESIAN X    -0.515521     -0.713913  KCAL/ANGSTROM
     92         31  C    CARTESIAN Y    -1.226834     -0.928729  KCAL/ANGSTROM
     93         31  C    CARTESIAN Z     3.326193      0.542029  KCAL/ANGSTROM
     94         32  H    CARTESIAN X    -0.571381      0.046837  KCAL/ANGSTROM
     95         32  H    CARTESIAN Y    -1.358449     -0.131353  KCAL/ANGSTROM
     96         32  H    CARTESIAN Z     1.035433      0.299980  KCAL/ANGSTROM
     97         33  C    CARTESIAN X     0.937105      0.133619  KCAL/ANGSTROM
     98         33  C    CARTESIAN Y    -0.891694     -0.264195  KCAL/ANGSTROM
     99         33  C    CARTESIAN Z     3.435454      0.085166  KCAL/ANGSTROM
    100         34  H    CARTESIAN X    -0.832608      0.210124  KCAL/ANGSTROM
    101         34  H    CARTESIAN Y    -1.692587     -1.010130  KCAL/ANGSTROM
    102         34  H    CARTESIAN Z     4.292329     -0.248044  KCAL/ANGSTROM
    103         35  H    CARTESIAN X    -1.125083     -0.332920  KCAL/ANGSTROM
    104         35  H    CARTESIAN Y    -0.299878     -0.533018  KCAL/ANGSTROM
    105         35  H    CARTESIAN Z     3.234140      0.169996  KCAL/ANGSTROM
    106         36  C    CARTESIAN X     1.373486      0.070459  KCAL/ANGSTROM
    107         36  C    CARTESIAN Y     0.366445      0.291735  KCAL/ANGSTROM
    108         36  C    CARTESIAN Z     3.491030     -0.235564  KCAL/ANGSTROM
    109         37  H    CARTESIAN X     1.612006     -0.127960  KCAL/ANGSTROM
    110         37  H    CARTESIAN Y    -1.745068      0.136730  KCAL/ANGSTROM
    111         37  H    CARTESIAN Z     3.511427      0.025017  KCAL/ANGSTROM
    112         38  H    CARTESIAN X     0.727616     -0.360995  KCAL/ANGSTROM
    113         38  H    CARTESIAN Y     1.228697     -0.008469  KCAL/ANGSTROM
    114         38  H    CARTESIAN Z     3.420989     -0.097056  KCAL/ANGSTROM
    115         39  H    CARTESIAN X     2.412466     -0.359267  KCAL/ANGSTROM
    116         39  H    CARTESIAN Y     0.631529      0.029319  KCAL/ANGSTROM
    117         39  H    CARTESIAN Z     3.599000     -0.272227  KCAL/ANGSTROM
    118         40  H    CARTESIAN X     4.027774      0.430686  KCAL/ANGSTROM
    119         40  H    CARTESIAN Y    -2.092126      0.016927  KCAL/ANGSTROM
    120         40  H    CARTESIAN Z     0.060059     -0.116931  KCAL/ANGSTROM




   ATOM   CHEMICAL          X               Y               Z
  NUMBER   SYMBOL      (ANGSTROMS)     (ANGSTROMS)     (ANGSTROMS)
 
     1       O         -0.14346985  *  -0.35806339  *   0.44549003  *
     2       C          1.12890755  *  -0.26864828  *   0.30676332  *
     3       C          1.72189922  *   1.03268942  *   0.45937271  *
     4       C          3.07895660  *   1.15052761  *   0.54825310  *
     5       C          3.92270429  *   0.00589757  *   0.47216181  *
     6       C          3.38422667  *  -1.21929682  *   0.19821582  *
     7       C          1.96674234  *  -1.41031581  *   0.05803613  *
     8       H          1.05459558  *   1.88796846  *   0.51711119  *
     9       H          3.54817502  *   2.12809677  *   0.68081681  *
    10       H          4.99301905  *   0.13674432  *   0.59700681  *
    11       C          1.59804269  *  -2.37454975  *  -1.05362519  *
    12       H          1.64210963  *  -2.25450920  *   1.24268651  *
    13       C          0.15082826  *  -2.73371679  *  -1.14952842  *
    14       H          2.22488581  *  -3.29240866  *  -0.97685978  *
    15       H          1.89729457  *  -1.89694752  *  -2.02014425  *
    16       C         -0.26491553  *  -3.99909073  *  -1.19441592  *
    17       H         -0.53824394  *  -1.89107324  *  -1.22484991  *
    18       H          0.39611658  *  -4.84964671  *  -1.12343870  *
    19       H         -1.29969461  *  -4.28293011  *  -1.29489482  *
    20       O          1.21619945  *  -3.25240862  *   1.81922414  *
    21       C         -0.05403121  *  -3.33801912  *   1.97368565  *
    22       C         -0.65034426  *  -4.64083972  *   1.84802561  *
    23       C         -2.00781016  *  -4.75582457  *   1.76638283  *
    24       C         -2.84862861  *  -3.60774168  *   1.82629178  *
    25       C         -2.30765893  *  -2.38040339  *   2.08088439  *
    26       C         -0.88782505  *  -2.19019153  *   2.21385143  *
    27       H          0.01417502  *  -5.49895616  *   1.80196749  *
    28       H         -2.48029061  *  -5.73427675  *   1.65205591  *
    29       H         -3.91974845  *  -3.73790648  *   1.70326402  *
    30       H         -2.94748856  *  -1.50299343  *   2.20763421  *
    31       C         -0.51552089  *  -1.22683363  *   3.32619303  *
    32       H         -0.57138056  *  -1.35844911  *   1.03543289  *
    33       C          0.93710476  *  -0.89169390  *   3.43545426  *
    34       H         -0.83260766  *  -1.69258736  *   4.29232856  *
    35       H         -1.12508318  *  -0.29987813  *   3.23413961  *
    36       C          1.37348644  *   0.36644452  *   3.49102955  *
    37       H          1.61200585  *  -1.74506832  *   3.51142741  *
    38       H          0.72761632  *   1.22869707  *   3.42098925  *
    39       H          2.41246592  *   0.63152865  *   3.59899969  *
    40       H          4.02777443  *  -2.09212592  *   0.06005854  *

                             CARTESIAN COORDINATES

   1    O       -0.143469847    -0.358063393     0.445490030
   2    C        1.128907546    -0.268648282     0.306763318
   3    C        1.721899218     1.032689420     0.459372708
   4    C        3.078956596     1.150527606     0.548253096
   5    C        3.922704288     0.005897573     0.472161807
   6    C        3.384226668    -1.219296820     0.198215825
   7    C        1.966742343    -1.410315811     0.058036126
   8    H        1.054595578     1.887968460     0.517111188
   9    H        3.548175024     2.128096768     0.680816811
  10    H        4.993019054     0.136744316     0.597006808
  11    C        1.598042693    -2.374549747    -1.053625192
  12    H        1.642109632    -2.254509195     1.242686505
  13    C        0.150828259    -2.733716795    -1.149528421
  14    H        2.224885809    -3.292408656    -0.976859775
  15    H        1.897294570    -1.896947518    -2.020144248
  16    C       -0.264915531    -3.999090734    -1.194415921
  17    H       -0.538243941    -1.891073241    -1.224849913
  18    H        0.396116579    -4.849646710    -1.123438697
  19    H       -1.299694608    -4.282930112    -1.294894818
  20    O        1.216199447    -3.252408618     1.819224144
  21    C       -0.054031210    -3.338019116     1.973685646
  22    C       -0.650344261    -4.640839718     1.848025612
  23    C       -2.007810161    -4.755824571     1.766382830
  24    C       -2.848628609    -3.607741677     1.826291784
  25    C       -2.307658934    -2.380403394     2.080884388
  26    C       -0.887825049    -2.190191531     2.213851434
  27    H        0.014175022    -5.498956164     1.801967490
  28    H       -2.480290608    -5.734276751     1.652055908
  29    H       -3.919748450    -3.737906478     1.703264017
  30    H       -2.947488563    -1.502993433     2.207634212
  31    C       -0.515520887    -1.226833628     3.326193026
  32    H       -0.571380558    -1.358449108     1.035432890
  33    C        0.937104755    -0.891693897     3.435454260
  34    H       -0.832607657    -1.692587364     4.292328564
  35    H       -1.125083181    -0.299878131     3.234139614
  36    C        1.373486442     0.366444517     3.491029554
  37    H        1.612005852    -1.745068316     3.511427409
  38    H        0.727616321     1.228697071     3.420989251
  39    H        2.412465919     0.631528651     3.598999687
  40    H        4.027774434    -2.092125920     0.060058538


           Empirical Formula: C18 H20 O2  =    40 atoms



      MOLECULAR POINT GROUP   :   Ci  


                  EIGENVALUES  
 -31.38670 -30.68244 -29.51046 -29.39452 -28.33216 -28.12192 -26.33131 -26.04919
 -25.30297 -24.96414 -23.28928 -23.25273 -21.23900 -21.00100 -20.93810 -20.18996
 -19.13684 -19.05695 -17.89185 -17.34485 -17.16289 -16.60788 -16.18275 -16.06418
 -15.87395 -15.36830 -15.13575 -14.84380 -14.49523 -14.43646 -14.30227 -14.24143
 -14.09070 -14.00321 -13.39918 -12.99517 -12.95211 -12.88240 -12.76786 -12.68055
 -12.24227 -12.11497 -11.85531 -11.76486 -11.31655 -11.01319 -10.39575 -10.13736
  -9.87498  -9.76817  -9.01435  -8.71330  -0.80953  -0.40858   0.47701   0.52647
   1.14469   1.16938   1.82531   2.11655   3.06188   3.39051   3.71393   3.76974
   3.84203   3.90638   4.25688   4.30428   4.48580   4.52602   4.69258   4.79606
   4.86529   5.01465   5.10722   5.15011   5.38279   5.39782   5.43439   5.50386
   5.74802   5.77053   5.80093   5.83449   5.88183   5.90764   5.96690   5.98821
   6.13567   6.15203   6.20384   6.26502   6.32981   6.34505   6.36939   6.38623
   6.63098   6.64748   6.75033   6.76676


              NET ATOMIC CHARGES AND DIPOLE CONTRIBUTIONS

  ATOM NO.   TYPE          CHARGE      No. of ELECS.   s-Pop       p-Pop       
    1          O          -0.610660        6.6107     1.85975     4.75091
    2          C           0.525747        3.4743     1.10224     2.37201
    3          C          -0.333347        4.3333     1.08346     3.24989
    4          C           0.004027        3.9960     1.09433     2.90165
    5          C          -0.304387        4.3044     1.07190     3.23249
    6          C           0.005463        3.9945     1.09767     2.89686
    7          C          -0.429260        4.4293     1.07203     3.35723
    8          H           0.178932        0.8211     0.82107
    9          H           0.145496        0.8545     0.85450
   10          H           0.158988        0.8410     0.84101
   11          C          -0.230881        4.2309     1.04861     3.18227
   12          H           0.431830        0.5682     0.56817
   13          C          -0.131574        4.1316     1.09319     3.03838
   14          H           0.154340        0.8457     0.84566
   15          H           0.153973        0.8460     0.84603
   16          C          -0.325118        4.3251     1.09484     3.23028
   17          H           0.158099        0.8419     0.84190
   18          H           0.147099        0.8529     0.85290
   19          H           0.143133        0.8569     0.85687
   20          O          -0.601071        6.6011     1.85816     4.74292
   21          C           0.527775        3.4722     1.10348     2.36874
   22          C          -0.334198        4.3342     1.08318     3.25102
   23          C           0.007209        3.9928     1.09470     2.89809
   24          C          -0.304601        4.3046     1.07201     3.23259
   25          C           0.007819        3.9922     1.09817     2.89401
   26          C          -0.430703        4.4307     1.07254     3.35817
   27          H           0.179683        0.8203     0.82032
   28          H           0.146030        0.8540     0.85397
   29          H           0.159690        0.8403     0.84031
   30          H           0.149785        0.8502     0.85021
   31          C          -0.230150        4.2301     1.04871     3.18144
   32          H           0.430593        0.5694     0.56941
   33          C          -0.133943        4.1339     1.09286     3.04108
   34          H           0.153605        0.8464     0.84639
   35          H           0.155265        0.8447     0.84474
   36          C          -0.321737        4.3217     1.09511     3.22663
   37          H           0.157363        0.8426     0.84264
   38          H           0.147228        0.8528     0.85277
   39          H           0.143564        0.8564     0.85644
   40          H           0.148892        0.8511     0.85111
 DIPOLE           X         Y         Z       TOTAL
 POINT-CHG.    -0.070    -0.112     0.137     0.190
 HYBRID         0.006    -0.004    -0.010     0.013
 SUM           -0.064    -0.116     0.126     0.183


          ATOMIC ORBITAL ELECTRON POPULATIONS

     Atom    s        px        py        pz   
    1  O   1.85975   1.30631   1.75262   1.69198
    2  C   1.10224   0.78700   0.91857   0.66644
    3  C   1.08346   1.03201   1.07216   1.14572
    4  C   1.09433   0.99035   1.05193   0.85937
    5  C   1.07190   1.08874   0.99500   1.14875
    6  C   1.09767   0.99586   1.02968   0.87133
    7  C   1.07203   1.01886   1.11488   1.22350
    8  H   0.82107
    9  H   0.85450
   10  H   0.84101
   11  C   1.04861   1.03846   1.09462   1.04919
   12  H   0.56817
   13  C   1.09319   1.01584   1.04617   0.97636
   14  H   0.84566
   15  H   0.84603
   16  C   1.09484   1.13739   1.05323   1.03966
   17  H   0.84190
   18  H   0.85290
   19  H   0.85687
   20  O   1.85816   1.30859   1.74543   1.68890
   21  C   1.10348   0.78549   0.92136   0.66190
   22  C   1.08318   1.03190   1.07083   1.14830
   23  C   1.09470   0.99024   1.05282   0.85503
   24  C   1.07201   1.08942   0.99449   1.14867
   25  C   1.09817   0.99551   1.03099   0.86751
   26  C   1.07254   1.01889   1.11349   1.22578
   27  H   0.82032
   28  H   0.85397
   29  H   0.84031
   30  H   0.85021
   31  C   1.04871   1.03811   1.09546   1.04787
   32  H   0.56941
   33  C   1.09286   1.01323   1.04832   0.97954
   34  H   0.84639
   35  H   0.84474
   36  C   1.09511   1.13609   1.05400   1.03654
   37  H   0.84264
   38  H   0.85277
   39  H   0.85644
   40  H   0.85111

 **********************
 *                    *
 * JOB ENDED NORMALLY *
 *                    *
 **********************



 TOTAL JOB TIME:           132.20 SECONDS

 == MOPAC DONE ==
