 *******************************************************************************
 ** Cite this program as: MOPAC2016, Version: 22.066W, James J. P. Stewart,   **
 **                           web-site: HTTP://OpenMOPAC.net.                 **
 *******************************************************************************
 **                                                                           **
 **                                MOPAC2016                                  **
 **                                                                           **
 *******************************************************************************

                              PM7 CALCULATION RESULTS

 *******************************************************************************
 *  CALCULATION DONE:                                Mon May  9 22:05:48 2022  *
 *  PM7        - The PM7 Hamiltonian to be used
 *
 *
 *
 *                 CHARGE ON SYSTEM = 0
 *
 *
 *
 *  PRECISE    - TIGHTER CRITERIA TO BE USED
 *  TS         - USE EF ROUTINE FOR TS SEARCH
 *  T=         - A TIME OF 172800.0 SECONDS REQUESTED
 *  DUMP=N     - RESTART FILE WRITTEN EVERY 7200.0 SECONDS REQUESTED
 *******************************************************************************
PM7 CHARGE=0 PRECISE TS


   ATOM   CHEMICAL          X               Y               Z
  NUMBER   SYMBOL      (ANGSTROMS)     (ANGSTROMS)     (ANGSTROMS)
 
     1       O         -0.14346985  *  -0.35806339  *   0.44549003  *
     2       C          1.12890755  *  -0.26864828  *   0.30676332  *
     3       C          1.72189922  *   1.03268942  *   0.45937271  *
     4       C          3.07895660  *   1.15052761  *   0.54825310  *
     5       C          3.92270429  *   0.00589757  *   0.47216181  *
     6       C          3.38422667  *  -1.21929682  *   0.19821582  *
     7       C          1.96674234  *  -1.41031581  *   0.05803613  *
     8       H          1.05459558  *   1.88796846  *   0.51711119  *
     9       H          3.54817502  *   2.12809677  *   0.68081681  *
    10       H          4.99301905  *   0.13674432  *   0.59700681  *
    11       C          1.59804269  *  -2.37454975  *  -1.05362519  *
    12       H          1.64210963  *  -2.25450920  *   1.24268651  *
    13       C          0.15082826  *  -2.73371679  *  -1.14952842  *
    14       H          2.22488581  *  -3.29240866  *  -0.97685978  *
    15       H          1.89729457  *  -1.89694752  *  -2.02014425  *
    16       C         -0.26491553  *  -3.99909073  *  -1.19441592  *
    17       H         -0.53824394  *  -1.89107324  *  -1.22484991  *
    18       H          0.39611658  *  -4.84964671  *  -1.12343870  *
    19       H         -1.29969461  *  -4.28293011  *  -1.29489482  *
    20       O          1.21619945  *  -3.25240862  *   1.81922414  *
    21       C         -0.05403121  *  -3.33801912  *   1.97368565  *
    22       C         -0.65034426  *  -4.64083972  *   1.84802561  *
    23       C         -2.00781016  *  -4.75582457  *   1.76638283  *
    24       C         -2.84862861  *  -3.60774168  *   1.82629178  *
    25       C         -2.30765893  *  -2.38040339  *   2.08088439  *
    26       C         -0.88782505  *  -2.19019153  *   2.21385143  *
    27       H          0.01417502  *  -5.49895616  *   1.80196749  *
    28       H         -2.48029061  *  -5.73427675  *   1.65205591  *
    29       H         -3.91974845  *  -3.73790648  *   1.70326402  *
    30       H         -2.94748856  *  -1.50299343  *   2.20763421  *
    31       C         -0.51552089  *  -1.22683363  *   3.32619303  *
    32       H         -0.57138056  *  -1.35844911  *   1.03543289  *
    33       C          0.93710476  *  -0.89169390  *   3.43545426  *
    34       H         -0.83260766  *  -1.69258736  *   4.29232856  *
    35       H         -1.12508318  *  -0.29987813  *   3.23413961  *
    36       C          1.37348644  *   0.36644452  *   3.49102955  *
    37       H          1.61200585  *  -1.74506832  *   3.51142741  *
    38       H          0.72761632  *   1.22869707  *   3.42098925  *
    39       H          2.41246592  *   0.63152865  *   3.59899969  *
    40       H          4.02777443  *  -2.09212592  *   0.06005854  *
 


          CARTESIAN COORDINATES 

    NO.       ATOM           X           Y           Z

     1         O         -0.1435     -0.3581      0.4455
     2         C          1.1289     -0.2686      0.3068
     3         C          1.7219      1.0327      0.4594
     4         C          3.0790      1.1505      0.5483
     5         C          3.9227      0.0059      0.4722
     6         C          3.3842     -1.2193      0.1982
     7         C          1.9667     -1.4103      0.0580
     8         H          1.0546      1.8880      0.5171
     9         H          3.5482      2.1281      0.6808
    10         H          4.9930      0.1367      0.5970
    11         C          1.5980     -2.3745     -1.0536
    12         H          1.6421     -2.2545      1.2427
    13         C          0.1508     -2.7337     -1.1495
    14         H          2.2249     -3.2924     -0.9769
    15         H          1.8973     -1.8969     -2.0201
    16         C         -0.2649     -3.9991     -1.1944
    17         H         -0.5382     -1.8911     -1.2248
    18         H          0.3961     -4.8496     -1.1234
    19         H         -1.2997     -4.2829     -1.2949
    20         O          1.2162     -3.2524      1.8192
    21         C         -0.0540     -3.3380      1.9737
    22         C         -0.6503     -4.6408      1.8480
    23         C         -2.0078     -4.7558      1.7664
    24         C         -2.8486     -3.6077      1.8263
    25         C         -2.3077     -2.3804      2.0809
    26         C         -0.8878     -2.1902      2.2139
    27         H          0.0142     -5.4990      1.8020
    28         H         -2.4803     -5.7343      1.6521
    29         H         -3.9197     -3.7379      1.7033
    30         H         -2.9475     -1.5030      2.2076
    31         C         -0.5155     -1.2268      3.3262
    32         H         -0.5714     -1.3584      1.0354
    33         C          0.9371     -0.8917      3.4355
    34         H         -0.8326     -1.6926      4.2923
    35         H         -1.1251     -0.2999      3.2341
    36         C          1.3735      0.3664      3.4910
    37         H          1.6120     -1.7451      3.5114
    38         H          0.7276      1.2287      3.4210
    39         H          2.4125      0.6315      3.5990
    40         H          4.0278     -2.0921      0.0601

 General Reference for PM7:
 "Optimization of Parameters for Semiempirical Methods VI: More Modifications to the 
 NDDO Approximations and Re-optimization of Parameters", J. J. P. Stewart, J. Mol. Mod., 1:32, 19 (2013)
 https://link.springer.com/article/10.1007/s00894-012-1667-x

           Empirical Formula: C18 H20 O2  =    40 atoms



      MOLECULAR POINT GROUP   :   Ci  


      RHF CALCULATION, NO. OF DOUBLY OCCUPIED LEVELS = 52


          Transition state refinement using EF

          HESSIAN CALCULATED NUMERICALLY

 CYCLE:     1 TIME:   4.445 TIME LEFT:  2.00D  GRAD.:    29.801 HEAT:  22.66306
 CYCLE:     2 TIME:   0.047 TIME LEFT:  2.00D  GRAD.:     2.867 HEAT:  23.19909
 CYCLE:     3 TIME:   0.039 TIME LEFT:  2.00D  GRAD.:     3.214 HEAT:  23.14013
 CYCLE:     4 TIME:   0.047 TIME LEFT:  2.00D  GRAD.:     2.519 HEAT:  22.98599
 CYCLE:     5 TIME:   0.055 TIME LEFT:  2.00D  GRAD.:     4.068 HEAT:  22.83088
 CYCLE:     6 TIME:   0.055 TIME LEFT:  2.00D  GRAD.:     3.815 HEAT:  22.67874
 CYCLE:     7 TIME:   0.047 TIME LEFT:  2.00D  GRAD.:     3.220 HEAT:  22.51493
 CYCLE:     8 TIME:   0.047 TIME LEFT:  2.00D  GRAD.:     2.509 HEAT:  22.37048
 CYCLE:     9 TIME:   0.047 TIME LEFT:  2.00D  GRAD.:     3.541 HEAT:  22.19181
 CYCLE:    10 TIME:   0.047 TIME LEFT:  2.00D  GRAD.:     9.872 HEAT:  22.02564
 CYCLE:    11 TIME:   0.078 TIME LEFT:  2.00D  GRAD.:    13.800 HEAT:  22.01714
 CYCLE:    12 TIME:   0.047 TIME LEFT:  2.00D  GRAD.:     5.303 HEAT:  21.84386
 CYCLE:    13 TIME:   0.047 TIME LEFT:  2.00D  GRAD.:     6.118 HEAT:  21.79591

     TRUST RADIUS NOW LESS THAN  0.00010 OPTIMIZATION TERMINATING
      THE GEOMETRY MAY NOT BE COMPLETELY OPTIMIZED
      (TO CONTINUE, ADD 'LET DDMIN=0.0' TO THE KEYWORD LINE)

 -------------------------------------------------------------------------------
 PM7 CHARGE=0 PRECISE TS




     GEOMETRY OPTIMISED USING EIGENVECTOR FOLLOWING (TS).     
     SCF FIELD WAS ACHIEVED                                   


                              PM7 CALCULATION
                                                       MOPAC2016 (Version: 22.066W)
                                                       Mon May  9 22:05:54 2022




          FINAL HEAT OF FORMATION =         22.58847 KCAL/MOL =      94.51014 KJ/MOL


          COSMO AREA              =        276.10 SQUARE ANGSTROMS
          COSMO VOLUME            =        345.87 CUBIC ANGSTROMS

          GRADIENT NORM           =          2.50884          =       0.39668 PER ATOM
          IONIZATION POTENTIAL    =          8.764174 EV
          HOMO LUMO ENERGIES (EV) =         -8.764 -0.806
          NO. OF FILLED LEVELS    =         52
          MOLECULAR WEIGHT        =        268.3548         POINT GROUP:  Ci  

          MOLECULAR DIMENSIONS (Angstroms)

            Atom       Atom       Distance
            H    28    H     9     9.90958
            H    34    H    15     6.59359
            H    40    H    30     4.69796


          SCF CALCULATIONS        =        145
 
          WALL-CLOCK TIME         =          5.461 SECONDS
          COMPUTATION TIME        =         10.469 SECONDS



       FINAL  POINT  AND  DERIVATIVES

   PARAMETER     ATOM    TYPE            VALUE        GRADIENT
      1          1  O    CARTESIAN X    -0.167612      0.561771  KCAL/ANGSTROM
      2          1  O    CARTESIAN Y    -0.373684      0.025158  KCAL/ANGSTROM
      3          1  O    CARTESIAN Z     0.425776      0.199850  KCAL/ANGSTROM
      4          2  C    CARTESIAN X     1.090170     -0.506866  KCAL/ANGSTROM
      5          2  C    CARTESIAN Y    -0.276926      0.040321  KCAL/ANGSTROM
      6          2  C    CARTESIAN Z     0.294460      0.044823  KCAL/ANGSTROM
      7          3  C    CARTESIAN X     1.671628      0.079075  KCAL/ANGSTROM
      8          3  C    CARTESIAN Y     1.037857     -0.123481  KCAL/ANGSTROM
      9          3  C    CARTESIAN Z     0.414365      0.028829  KCAL/ANGSTROM
     10          4  C    CARTESIAN X     3.020317     -0.042639  KCAL/ANGSTROM
     11          4  C    CARTESIAN Y     1.170309     -0.082773  KCAL/ANGSTROM
     12          4  C    CARTESIAN Z     0.529353      0.043203  KCAL/ANGSTROM
     13          5  C    CARTESIAN X     3.881270      0.065886  KCAL/ANGSTROM
     14          5  C    CARTESIAN Y     0.029880     -0.043522  KCAL/ANGSTROM
     15          5  C    CARTESIAN Z     0.490450      0.026042  KCAL/ANGSTROM
     16          6  C    CARTESIAN X     3.366584      0.281312  KCAL/ANGSTROM
     17          6  C    CARTESIAN Y    -1.204404      0.018316  KCAL/ANGSTROM
     18          6  C    CARTESIAN Z     0.236711     -0.071444  KCAL/ANGSTROM
     19          7  C    CARTESIAN X     1.944003      0.234901  KCAL/ANGSTROM
     20          7  C    CARTESIAN Y    -1.431559      0.646690  KCAL/ANGSTROM
     21          7  C    CARTESIAN Z     0.109037     -0.273014  KCAL/ANGSTROM
     22          8  H    CARTESIAN X     0.990568      0.035307  KCAL/ANGSTROM
     23          8  H    CARTESIAN Y     1.884095      0.016466  KCAL/ANGSTROM
     24          8  H    CARTESIAN Z     0.434027      0.033013  KCAL/ANGSTROM
     25          9  H    CARTESIAN X     3.478107      0.037567  KCAL/ANGSTROM
     26          9  H    CARTESIAN Y     2.154388     -0.050553  KCAL/ANGSTROM
     27          9  H    CARTESIAN Z     0.651129      0.050988  KCAL/ANGSTROM
     28         10  H    CARTESIAN X     4.946607      0.011809  KCAL/ANGSTROM
     29         10  H    CARTESIAN Y     0.180248     -0.084998  KCAL/ANGSTROM
     30         10  H    CARTESIAN Z     0.634649     -0.004750  KCAL/ANGSTROM
     31         11  C    CARTESIAN X     1.590578      0.181300  KCAL/ANGSTROM
     32         11  C    CARTESIAN Y    -2.440372      0.004853  KCAL/ANGSTROM
     33         11  C    CARTESIAN Z    -0.974950      0.082095  KCAL/ANGSTROM
     34         12  H    CARTESIAN X     1.672054     -0.296068  KCAL/ANGSTROM
     35         12  H    CARTESIAN Y    -2.192140     -0.383898  KCAL/ANGSTROM
     36         12  H    CARTESIAN Z     1.275870      0.412723  KCAL/ANGSTROM
     37         13  C    CARTESIAN X     0.130046     -0.213516  KCAL/ANGSTROM
     38         13  C    CARTESIAN Y    -2.700260      0.086125  KCAL/ANGSTROM
     39         13  C    CARTESIAN Z    -1.169328      0.189330  KCAL/ANGSTROM
     40         14  H    CARTESIAN X     2.132671      0.426698  KCAL/ANGSTROM
     41         14  H    CARTESIAN Y    -3.393607     -0.361482  KCAL/ANGSTROM
     42         14  H    CARTESIAN Z    -0.775965     -0.215076  KCAL/ANGSTROM
     43         15  H    CARTESIAN X     1.999367      0.056106  KCAL/ANGSTROM
     44         15  H    CARTESIAN Y    -2.063692      0.512516  KCAL/ANGSTROM
     45         15  H    CARTESIAN Z    -1.945158     -0.476356  KCAL/ANGSTROM
     46         16  C    CARTESIAN X    -0.371927      0.071981  KCAL/ANGSTROM
     47         16  C    CARTESIAN Y    -3.933171     -0.335600  KCAL/ANGSTROM
     48         16  C    CARTESIAN Z    -1.242129      0.062461  KCAL/ANGSTROM
     49         17  H    CARTESIAN X    -0.495146     -0.463779  KCAL/ANGSTROM
     50         17  H    CARTESIAN Y    -1.814459      0.245370  KCAL/ANGSTROM
     51         17  H    CARTESIAN Z    -1.299611      0.041132  KCAL/ANGSTROM
     52         18  H    CARTESIAN X     0.217008      0.446964  KCAL/ANGSTROM
     53         18  H    CARTESIAN Y    -4.830723     -0.375588  KCAL/ANGSTROM
     54         18  H    CARTESIAN Z    -1.125687     -0.020379  KCAL/ANGSTROM
     55         19  H    CARTESIAN X    -1.416481     -0.313403  KCAL/ANGSTROM
     56         19  H    CARTESIAN Y    -4.140499     -0.251927  KCAL/ANGSTROM
     57         19  H    CARTESIAN Z    -1.416093      0.078649  KCAL/ANGSTROM
     58         20  O    CARTESIAN X     1.241386      0.115098  KCAL/ANGSTROM
     59         20  O    CARTESIAN Y    -3.250137     -0.209663  KCAL/ANGSTROM
     60         20  O    CARTESIAN Z     1.883042      0.132778  KCAL/ANGSTROM
     61         21  C    CARTESIAN X    -0.017569     -0.245997  KCAL/ANGSTROM
     62         21  C    CARTESIAN Y    -3.340577      0.033546  KCAL/ANGSTROM
     63         21  C    CARTESIAN Z     2.003523      0.060640  KCAL/ANGSTROM
     64         22  C    CARTESIAN X    -0.609579     -0.027088  KCAL/ANGSTROM
     65         22  C    CARTESIAN Y    -4.648769     -0.070158  KCAL/ANGSTROM
     66         22  C    CARTESIAN Z     1.859553     -0.076659  KCAL/ANGSTROM
     67         23  C    CARTESIAN X    -1.958948     -0.049602  KCAL/ANGSTROM
     68         23  C    CARTESIAN Y    -4.770770      0.029160  KCAL/ANGSTROM
     69         23  C    CARTESIAN Z     1.737104     -0.049666  KCAL/ANGSTROM
     70         24  C    CARTESIAN X    -2.810493     -0.009866  KCAL/ANGSTROM
     71         24  C    CARTESIAN Y    -3.625271      0.102621  KCAL/ANGSTROM
     72         24  C    CARTESIAN Z     1.788458      0.021642  KCAL/ANGSTROM
     73         25  C    CARTESIAN X    -2.285604      0.174638  KCAL/ANGSTROM
     74         25  C    CARTESIAN Y    -2.398525      0.004529  KCAL/ANGSTROM
     75         25  C    CARTESIAN Z     2.062835     -0.133038  KCAL/ANGSTROM
     76         26  C    CARTESIAN X    -0.864671      0.103943  KCAL/ANGSTROM
     77         26  C    CARTESIAN Y    -2.184572      0.329886  KCAL/ANGSTROM
     78         26  C    CARTESIAN Z     2.195780     -0.117029  KCAL/ANGSTROM
     79         27  H    CARTESIAN X     0.065193     -0.140374  KCAL/ANGSTROM
     80         27  H    CARTESIAN Y    -5.499280      0.035453  KCAL/ANGSTROM
     81         27  H    CARTESIAN Z     1.831638     -0.060988  KCAL/ANGSTROM
     82         28  H    CARTESIAN X    -2.422927     -0.088636  KCAL/ANGSTROM
     83         28  H    CARTESIAN Y    -5.749784      0.009721  KCAL/ANGSTROM
     84         28  H    CARTESIAN Z     1.600654     -0.016583  KCAL/ANGSTROM
     85         29  H    CARTESIAN X    -3.876407     -0.078041  KCAL/ANGSTROM
     86         29  H    CARTESIAN Y    -3.763898      0.061637  KCAL/ANGSTROM
     87         29  H    CARTESIAN Z     1.638346     -0.067123  KCAL/ANGSTROM
     88         30  H    CARTESIAN X    -2.933566      0.001242  KCAL/ANGSTROM
     89         30  H    CARTESIAN Y    -1.527550      0.019130  KCAL/ANGSTROM
     90         30  H    CARTESIAN Z     2.187767      0.050555  KCAL/ANGSTROM
     91         31  C    CARTESIAN X    -0.500280     -0.187288  KCAL/ANGSTROM
     92         31  C    CARTESIAN Y    -1.154984     -0.381484  KCAL/ANGSTROM
     93         31  C    CARTESIAN Z     3.253138     -0.361822  KCAL/ANGSTROM
     94         32  H    CARTESIAN X    -0.590939     -0.102089  KCAL/ANGSTROM
     95         32  H    CARTESIAN Y    -1.429352      0.010111  KCAL/ANGSTROM
     96         32  H    CARTESIAN Z     1.000755      0.109985  KCAL/ANGSTROM
     97         33  C    CARTESIAN X     0.962770      0.317745  KCAL/ANGSTROM
     98         33  C    CARTESIAN Y    -0.918086     -0.119791  KCAL/ANGSTROM
     99         33  C    CARTESIAN Z     3.457298     -0.096121  KCAL/ANGSTROM
    100         34  H    CARTESIAN X    -0.924609     -0.100771  KCAL/ANGSTROM
    101         34  H    CARTESIAN Y    -1.496119     -0.358687  KCAL/ANGSTROM
    102         34  H    CARTESIAN Z     4.230515      0.664542  KCAL/ANGSTROM
    103         35  H    CARTESIAN X    -1.022335     -0.553390  KCAL/ANGSTROM
    104         35  H    CARTESIAN Y    -0.196891      0.424190  KCAL/ANGSTROM
    105         35  H    CARTESIAN Z     3.024132     -0.000359  KCAL/ANGSTROM
    106         36  C    CARTESIAN X     1.482755      0.050936  KCAL/ANGSTROM
    107         36  C    CARTESIAN Y     0.306727      0.337282  KCAL/ANGSTROM
    108         36  C    CARTESIAN Z     3.541324     -0.029796  KCAL/ANGSTROM
    109         37  H    CARTESIAN X     1.574047      0.368866  KCAL/ANGSTROM
    110         37  H    CARTESIAN Y    -1.814310     -0.214113  KCAL/ANGSTROM
    111         37  H    CARTESIAN Z     3.584040     -0.177088  KCAL/ANGSTROM
    112         38  H    CARTESIAN X     0.908274     -0.415613  KCAL/ANGSTROM
    113         38  H    CARTESIAN Y     1.213759      0.387696  KCAL/ANGSTROM
    114         38  H    CARTESIAN Z     3.429120      0.018578  KCAL/ANGSTROM
    115         39  H    CARTESIAN X     2.528675      0.173918  KCAL/ANGSTROM
    116         39  H    CARTESIAN Y     0.496881      0.220631  KCAL/ANGSTROM
    117         39  H    CARTESIAN Z     3.723522     -0.108448  KCAL/ANGSTROM
    118         40  H    CARTESIAN X     4.019037      0.037963  KCAL/ANGSTROM
    119         40  H    CARTESIAN Y    -2.074156     -0.153691  KCAL/ANGSTROM
    120         40  H    CARTESIAN Z     0.125573      0.003887  KCAL/ANGSTROM




   ATOM   CHEMICAL          X               Y               Z
  NUMBER   SYMBOL      (ANGSTROMS)     (ANGSTROMS)     (ANGSTROMS)
 
     1       O         -0.16761190  *  -0.37368381  *   0.42577632  *
     2       C          1.09016965  *  -0.27692611  *   0.29445984  *
     3       C          1.67162778  *   1.03785715  *   0.41436491  *
     4       C          3.02031682  *   1.17030885  *   0.52935319  *
     5       C          3.88127012  *   0.02988046  *   0.49044997  *
     6       C          3.36658351  *  -1.20440415  *   0.23671102  *
     7       C          1.94400253  *  -1.43155895  *   0.10903690  *
     8       H          0.99056819  *   1.88409466  *   0.43402703  *
     9       H          3.47810662  *   2.15438845  *   0.65112868  *
    10       H          4.94660676  *   0.18024786  *   0.63464908  *
    11       C          1.59057824  *  -2.44037245  *  -0.97495032  *
    12       H          1.67205365  *  -2.19214042  *   1.27587038  *
    13       C          0.13004551  *  -2.70026039  *  -1.16932808  *
    14       H          2.13267113  *  -3.39360707  *  -0.77596491  *
    15       H          1.99936725  *  -2.06369235  *  -1.94515790  *
    16       C         -0.37192720  *  -3.93317138  *  -1.24212940  *
    17       H         -0.49514565  *  -1.81445935  *  -1.29961093  *
    18       H          0.21700841  *  -4.83072347  *  -1.12568687  *
    19       H         -1.41648112  *  -4.14049935  *  -1.41609266  *
    20       O          1.24138578  *  -3.25013691  *   1.88304227  *
    21       C         -0.01756872  *  -3.34057668  *   2.00352346  *
    22       C         -0.60957918  *  -4.64876862  *   1.85955340  *
    23       C         -1.95894774  *  -4.77077019  *   1.73710354  *
    24       C         -2.81049287  *  -3.62527121  *   1.78845830  *
    25       C         -2.28560390  *  -2.39852475  *   2.06283467  *
    26       C         -0.86467150  *  -2.18457218  *   2.19578044  *
    27       H          0.06519270  *  -5.49928045  *   1.83163793  *
    28       H         -2.42292684  *  -5.74978385  *   1.60065448  *
    29       H         -3.87640732  *  -3.76389800  *   1.63834625  *
    30       H         -2.93356575  *  -1.52755020  *   2.18776706  *
    31       C         -0.50028038  *  -1.15498433  *   3.25313799  *
    32       H         -0.59093948  *  -1.42935237  *   1.00075483  *
    33       C          0.96277007  *  -0.91808608  *   3.45729785  *
    34       H         -0.92460855  *  -1.49611902  *   4.23051549  *
    35       H         -1.02233463  *  -0.19689136  *   3.02413157  *
    36       C          1.48275480  *   0.30672737  *   3.54132408  *
    37       H          1.57404748  *  -1.81431040  *   3.58403952  *
    38       H          0.90827364  *   1.21375863  *   3.42912029  *
    39       H          2.52867494  *   0.49688119  *   3.72352205  *
    40       H          4.01903715  *  -2.07415558  *   0.12557311  *

                             CARTESIAN COORDINATES

   1    O       -0.167611897    -0.373683811     0.425776318
   2    C        1.090169647    -0.276926112     0.294459836
   3    C        1.671627781     1.037857154     0.414364915
   4    C        3.020316821     1.170308847     0.529353187
   5    C        3.881270120     0.029880457     0.490449968
   6    C        3.366583514    -1.204404148     0.236711024
   7    C        1.944002527    -1.431558946     0.109036898
   8    H        0.990568188     1.884094656     0.434027028
   9    H        3.478106616     2.154388447     0.651128685
  10    H        4.946606758     0.180247859     0.634649076
  11    C        1.590578240    -2.440372452    -0.974950321
  12    H        1.672053648    -2.192140417     1.275870383
  13    C        0.130045514    -2.700260388    -1.169328084
  14    H        2.132671127    -3.393607071    -0.775964910
  15    H        1.999367253    -2.063692353    -1.945157900
  16    C       -0.371927203    -3.933171376    -1.242129398
  17    H       -0.495145648    -1.814459348    -1.299610933
  18    H        0.217008408    -4.830723466    -1.125686867
  19    H       -1.416481117    -4.140499347    -1.416092656
  20    O        1.241385775    -3.250136915     1.883042275
  21    C       -0.017568720    -3.340576680     2.003523459
  22    C       -0.609579180    -4.648768616     1.859553399
  23    C       -1.958947743    -4.770770192     1.737103542
  24    C       -2.810492868    -3.625271206     1.788458299
  25    C       -2.285603898    -2.398524752     2.062834671
  26    C       -0.864671496    -2.184572184     2.195780442
  27    H        0.065192704    -5.499280449     1.831637925
  28    H       -2.422926835    -5.749783855     1.600654484
  29    H       -3.876407320    -3.763898000     1.638346246
  30    H       -2.933565746    -1.527550204     2.187767059
  31    C       -0.500280376    -1.154984328     3.253137988
  32    H       -0.590939478    -1.429352369     1.000754826
  33    C        0.962770073    -0.918086082     3.457297853
  34    H       -0.924608552    -1.496119021     4.230515488
  35    H       -1.022334631    -0.196891359     3.024131568
  36    C        1.482754801     0.306727366     3.541324080
  37    H        1.574047485    -1.814310404     3.584039517
  38    H        0.908273636     1.213758635     3.429120291
  39    H        2.528674941     0.496881188     3.723522048
  40    H        4.019037147    -2.074155578     0.125573106


           Empirical Formula: C18 H20 O2  =    40 atoms



      MOLECULAR POINT GROUP   :   Ci  


                  EIGENVALUES  
 -31.44162 -30.67944 -29.64132 -29.43227 -28.29425 -28.13275 -26.34021 -26.08320
 -25.26298 -24.93851 -23.27961 -23.21390 -21.26176 -20.97535 -20.89553 -20.17125
 -19.10043 -19.02782 -17.77846 -17.33112 -17.19174 -16.56565 -16.11182 -16.07133
 -15.89561 -15.39020 -15.04838 -14.82524 -14.51661 -14.39829 -14.30977 -14.27422
 -14.06053 -13.97373 -13.38058 -13.06393 -13.02195 -12.88953 -12.75121 -12.62004
 -12.19162 -12.04539 -11.85220 -11.76919 -11.33792 -10.96732 -10.44222 -10.11497
  -9.89883  -9.81603  -9.03158  -8.76417  -0.80607  -0.41174   0.53504   0.62184
   1.13981   1.17702   1.81468   2.11141   3.19864   3.54180   3.62939   3.72766
   3.79558   3.89300   4.20764   4.29436   4.43905   4.50901   4.68003   4.76970
   4.85264   5.00085   5.08036   5.16260   5.37552   5.40681   5.47745   5.51876
   5.73209   5.75717   5.80803   5.81464   5.90232   5.91359   5.95090   5.99524
   6.12199   6.15511   6.18406   6.26597   6.30642   6.33994   6.38972   6.39195
   6.62543   6.67228   6.73942   6.77599


              NET ATOMIC CHARGES AND DIPOLE CONTRIBUTIONS

  ATOM NO.   TYPE          CHARGE      No. of ELECS.   s-Pop       p-Pop       
    1          O          -0.597740        6.5977     1.86308     4.73466
    2          C           0.540773        3.4592     1.10605     2.35317
    3          C          -0.338079        4.3381     1.08456     3.25352
    4          C           0.011618        3.9884     1.09525     2.89313
    5          C          -0.303662        4.3037     1.07212     3.23154
    6          C           0.007204        3.9928     1.09898     2.89382
    7          C          -0.428686        4.4287     1.07382     3.35487
    8          H           0.179944        0.8201     0.82006
    9          H           0.146194        0.8538     0.85381
   10          H           0.160036        0.8400     0.83996
   11          C          -0.233969        4.2340     1.04968     3.18429
   12          H           0.419479        0.5805     0.58052
   13          C          -0.131784        4.1318     1.09354     3.03824
   14          H           0.157697        0.8423     0.84230
   15          H           0.153113        0.8469     0.84689
   16          C          -0.325533        4.3255     1.09515     3.23039
   17          H           0.158389        0.8416     0.84161
   18          H           0.147232        0.8528     0.85277
   19          H           0.144019        0.8560     0.85598
   20          O          -0.612453        6.6125     1.86525     4.74721
   21          C           0.538179        3.4618     1.10365     2.35817
   22          C          -0.336945        4.3369     1.08498     3.25197
   23          C           0.005837        3.9942     1.09432     2.89984
   24          C          -0.305059        4.3051     1.07161     3.23345
   25          C           0.003955        3.9960     1.09795     2.89810
   26          C          -0.429856        4.4299     1.07252     3.35733
   27          H           0.178533        0.8215     0.82147
   28          H           0.145238        0.8548     0.85476
   29          H           0.158923        0.8411     0.84108
   30          H           0.148891        0.8511     0.85111
   31          C          -0.235924        4.2359     1.04933     3.18659
   32          H           0.422638        0.5774     0.57736
   33          C          -0.125874        4.1259     1.09456     3.03131
   34          H           0.154263        0.8457     0.84574
   35          H           0.156735        0.8433     0.84327
   36          C          -0.334262        4.3343     1.09432     3.23994
   37          H           0.160585        0.8394     0.83942
   38          H           0.146403        0.8536     0.85360
   39          H           0.143583        0.8564     0.85642
   40          H           0.150369        0.8496     0.84963
 DIPOLE           X         Y         Z       TOTAL
 POINT-CHG.     0.136     0.223    -0.265     0.372
 HYBRID        -0.011     0.013     0.018     0.025
 SUM            0.126     0.236    -0.247     0.364


          ATOMIC ORBITAL ELECTRON POPULATIONS

     Atom    s        px        py        pz   
    1  O   1.86308   1.30594   1.77542   1.65329
    2  C   1.10605   0.79544   0.91950   0.63824
    3  C   1.08456   1.03573   1.07096   1.14684
    4  C   1.09525   0.98935   1.05353   0.85026
    5  C   1.07212   1.08947   0.99498   1.14709
    6  C   1.09898   0.99760   1.03086   0.86536
    7  C   1.07382   1.01721   1.09989   1.23777
    8  H   0.82006
    9  H   0.85381
   10  H   0.83996
   11  C   1.04968   1.03775   1.08989   1.05664
   12  H   0.58052
   13  C   1.09354   1.00609   1.05423   0.97792
   14  H   0.84230
   15  H   0.84689
   16  C   1.09515   1.13038   1.05830   1.04171
   17  H   0.84161
   18  H   0.85277
   19  H   0.85598
   20  O   1.86525   1.30358   1.78846   1.65516
   21  C   1.10365   0.79675   0.91586   0.64555
   22  C   1.08498   1.03457   1.07360   1.14380
   23  C   1.09432   0.99030   1.05191   0.85763
   24  C   1.07161   1.08910   0.99518   1.14917
   25  C   1.09795   0.99695   1.03060   0.87054
   26  C   1.07252   1.01817   1.09752   1.24165
   27  H   0.82147
   28  H   0.85476
   29  H   0.84108
   30  H   0.85111
   31  C   1.04933   1.03611   1.08696   1.06352
   32  H   0.57736
   33  C   1.09456   1.00521   1.05577   0.97033
   34  H   0.84574
   35  H   0.84327
   36  C   1.09432   1.12934   1.06008   1.05052
   37  H   0.83942
   38  H   0.85360
   39  H   0.85642
   40  H   0.84963

 **********************
 *                    *
 * JOB ENDED NORMALLY *
 *                    *
 **********************



 TOTAL JOB TIME:             5.48 SECONDS

 == MOPAC DONE ==
