 *******************************************************************************
 ** Cite this program as: MOPAC2016, Version: 22.066W, James J. P. Stewart,   **
 **                           web-site: HTTP://OpenMOPAC.net.                 **
 *******************************************************************************
 **                                                                           **
 **                                MOPAC2016                                  **
 **                                                                           **
 *******************************************************************************

                              PM7 CALCULATION RESULTS

 *******************************************************************************
 *  CALCULATION DONE:                                Mon May  9 22:17:23 2022  *
 *  PM7        - The PM7 Hamiltonian to be used
 *  GEO_DAT    - DATA SET GEOMETRY IS IN FILE "E2_TS.arc"
 *
 *
 *
 *                 CHARGE ON SYSTEM = 0
 *
 *
 *
 *  IRC=N      - INTRINSIC REACTION COORDINATE -1 DEFINED
 *  LET        - OVERRIDE SOME SAFETY CHECKS
 *  T=         - A TIME OF 172800.0 SECONDS REQUESTED
 *  DUMP=N     - RESTART FILE WRITTEN EVERY 7200.0 SECONDS REQUESTED
 *  CYCLES=    - DO A MAXIMUM OF 10000 STEPS
 *  LARGE      - EXPANDED OUTPUT TO BE PRINTED
 *******************************************************************************
PM7 CHARGE=0 IRC=-1 LARGE=100 LET CYCLES=10000 GEO_DAT="E2_TS.arc"
 (irc)

   ATOM   CHEMICAL          X               Y               Z
  NUMBER   SYMBOL      (ANGSTROMS)     (ANGSTROMS)     (ANGSTROMS)
 
     1       O         -0.16761190  *  -0.37368381  *   0.42577632  *
     2       C          1.09016965  *  -0.27692611  *   0.29445984  *
     3       C          1.67162778  *   1.03785715  *   0.41436491  *
     4       C          3.02031682  *   1.17030885  *   0.52935319  *
     5       C          3.88127012  *   0.02988046  *   0.49044997  *
     6       C          3.36658351  *  -1.20440415  *   0.23671102  *
     7       C          1.94400253  *  -1.43155895  *   0.10903690  *
     8       H          0.99056819  *   1.88409466  *   0.43402703  *
     9       H          3.47810662  *   2.15438845  *   0.65112868  *
    10       H          4.94660676  *   0.18024786  *   0.63464908  *
    11       C          1.59057824  *  -2.44037245  *  -0.97495032  *
    12       H          1.67205365  *  -2.19214042  *   1.27587038  *
    13       C          0.13004551  *  -2.70026039  *  -1.16932808  *
    14       H          2.13267113  *  -3.39360707  *  -0.77596491  *
    15       H          1.99936725  *  -2.06369235  *  -1.94515790  *
    16       C         -0.37192720  *  -3.93317138  *  -1.24212940  *
    17       H         -0.49514565  *  -1.81445935  *  -1.29961093  *
    18       H          0.21700841  *  -4.83072347  *  -1.12568687  *
    19       H         -1.41648112  *  -4.14049935  *  -1.41609266  *
    20       O          1.24138578  *  -3.25013691  *   1.88304227  *
    21       C         -0.01756872  *  -3.34057668  *   2.00352346  *
    22       C         -0.60957918  *  -4.64876862  *   1.85955340  *
    23       C         -1.95894774  *  -4.77077019  *   1.73710354  *
    24       C         -2.81049287  *  -3.62527121  *   1.78845830  *
    25       C         -2.28560390  *  -2.39852475  *   2.06283467  *
    26       C         -0.86467150  *  -2.18457218  *   2.19578044  *
    27       H          0.06519270  *  -5.49928045  *   1.83163793  *
    28       H         -2.42292684  *  -5.74978385  *   1.60065448  *
    29       H         -3.87640732  *  -3.76389800  *   1.63834625  *
    30       H         -2.93356575  *  -1.52755020  *   2.18776706  *
    31       C         -0.50028038  *  -1.15498433  *   3.25313799  *
    32       H         -0.59093948  *  -1.42935237  *   1.00075483  *
    33       C          0.96277007  *  -0.91808608  *   3.45729785  *
    34       H         -0.92460855  *  -1.49611902  *   4.23051549  *
    35       H         -1.02233463  *  -0.19689136  *   3.02413157  *
    36       C          1.48275480  *   0.30672737  *   3.54132408  *
    37       H          1.57404748  *  -1.81431040  *   3.58403952  *
    38       H          0.90827364  *   1.21375863  *   3.42912029  *
    39       H          2.52867494  *   0.49688119  *   3.72352205  *
    40       H          4.01903715  *  -2.07415558  *   0.12557311  *
 


          CARTESIAN COORDINATES 

    NO.       ATOM           X           Y           Z

     1         O         -0.1676     -0.3737      0.4258
     2         C          1.0902     -0.2769      0.2945
     3         C          1.6716      1.0379      0.4144
     4         C          3.0203      1.1703      0.5294
     5         C          3.8813      0.0299      0.4904
     6         C          3.3666     -1.2044      0.2367
     7         C          1.9440     -1.4316      0.1090
     8         H          0.9906      1.8841      0.4340
     9         H          3.4781      2.1544      0.6511
    10         H          4.9466      0.1802      0.6346
    11         C          1.5906     -2.4404     -0.9750
    12         H          1.6721     -2.1921      1.2759
    13         C          0.1300     -2.7003     -1.1693
    14         H          2.1327     -3.3936     -0.7760
    15         H          1.9994     -2.0637     -1.9452
    16         C         -0.3719     -3.9332     -1.2421
    17         H         -0.4951     -1.8145     -1.2996
    18         H          0.2170     -4.8307     -1.1257
    19         H         -1.4165     -4.1405     -1.4161
    20         O          1.2414     -3.2501      1.8830
    21         C         -0.0176     -3.3406      2.0035
    22         C         -0.6096     -4.6488      1.8596
    23         C         -1.9589     -4.7708      1.7371
    24         C         -2.8105     -3.6253      1.7885
    25         C         -2.2856     -2.3985      2.0628
    26         C         -0.8647     -2.1846      2.1958
    27         H          0.0652     -5.4993      1.8316
    28         H         -2.4229     -5.7498      1.6007
    29         H         -3.8764     -3.7639      1.6383
    30         H         -2.9336     -1.5276      2.1878
    31         C         -0.5003     -1.1550      3.2531
    32         H         -0.5909     -1.4294      1.0008
    33         C          0.9628     -0.9181      3.4573
    34         H         -0.9246     -1.4961      4.2305
    35         H         -1.0223     -0.1969      3.0241
    36         C          1.4828      0.3067      3.5413
    37         H          1.5740     -1.8143      3.5840
    38         H          0.9083      1.2138      3.4291
    39         H          2.5287      0.4969      3.7235
    40         H          4.0190     -2.0742      0.1256

 General Reference for PM7:
 "Optimization of Parameters for Semiempirical Methods VI: More Modifications to the 
 NDDO Approximations and Re-optimization of Parameters", J. J. P. Stewart, J. Mol. Mod., 1:32, 19 (2013)
 https://link.springer.com/article/10.1007/s00894-012-1667-x

           Empirical Formula: C18 H20 O2  =    40 atoms



      MOLECULAR POINT GROUP   :   Ci  


      RHF CALCULATION, NO. OF DOUBLY OCCUPIED LEVELS = 52



          HEAT OF FORMATION =      22.588466 KCALS/MOLE


          GRADIENT NORM =   2.53150


          TIME FOR SCF CALCULATION =    0.09

          TIME FOR DERIVATIVES     =    0.05

          MOLECULAR WEIGHT =  268.35


          ESTIMATED TIME TO COMPLETE CALCULATION =       33.75 SECONDS

    FOR POINT-GROUP Ci   THERE ARE   2 UNIQUE SYMMETRY FUNCTIONS.

 STEP:   1 TIME =     0.09 SECS, INTEGRAL =      0.09 TIME LEFT: 172799.77
 STEP:   2 TIME =     0.06 SECS, INTEGRAL =      0.15 TIME LEFT: 172799.71
 STEP:   3 TIME =     0.06 SECS, INTEGRAL =      0.21 TIME LEFT: 172799.65
 STEP:   4 TIME =     0.05 SECS, INTEGRAL =      0.27 TIME LEFT: 172799.59
 STEP:   5 TIME =     0.06 SECS, INTEGRAL =      0.33 TIME LEFT: 172799.53
 STEP:   6 TIME =     0.07 SECS, INTEGRAL =      0.40 TIME LEFT: 172799.46
 STEP:   7 TIME =     0.05 SECS, INTEGRAL =      0.45 TIME LEFT: 172799.41
 STEP:   8 TIME =     0.06 SECS, INTEGRAL =      0.52 TIME LEFT: 172799.34
 STEP:   9 TIME =     0.06 SECS, INTEGRAL =      0.58 TIME LEFT: 172799.28
 STEP:  10 TIME =     0.07 SECS, INTEGRAL =      0.65 TIME LEFT: 172799.21
 STEP:  11 TIME =     0.06 SECS, INTEGRAL =      0.71 TIME LEFT: 172799.15
 STEP:  12 TIME =     0.06 SECS, INTEGRAL =      0.77 TIME LEFT: 172799.09
 STEP:  13 TIME =     0.06 SECS, INTEGRAL =      0.84 TIME LEFT: 172799.02
 STEP:  14 TIME =     0.06 SECS, INTEGRAL =      0.90 TIME LEFT: 172798.96
 STEP:  15 TIME =     0.06 SECS, INTEGRAL =      0.96 TIME LEFT: 172798.90
 STEP:  16 TIME =     0.06 SECS, INTEGRAL =      1.02 TIME LEFT: 172798.84
 STEP:  17 TIME =     0.05 SECS, INTEGRAL =      1.08 TIME LEFT: 172798.78
 STEP:  18 TIME =     0.07 SECS, INTEGRAL =      1.15 TIME LEFT: 172798.71
 STEP:  19 TIME =     0.06 SECS, INTEGRAL =      1.21 TIME LEFT: 172798.65
 STEP:  20 TIME =     0.06 SECS, INTEGRAL =      1.27 TIME LEFT: 172798.59
 STEP:  21 TIME =     0.06 SECS, INTEGRAL =      1.34 TIME LEFT: 172798.52
 STEP:  22 TIME =     0.06 SECS, INTEGRAL =      1.40 TIME LEFT: 172798.46
 STEP:  23 TIME =     0.06 SECS, INTEGRAL =      1.46 TIME LEFT: 172798.40
 STEP:  24 TIME =     0.06 SECS, INTEGRAL =      1.52 TIME LEFT: 172798.34
 STEP:  25 TIME =     0.05 SECS, INTEGRAL =      1.58 TIME LEFT: 172798.28
 STEP:  26 TIME =     0.06 SECS, INTEGRAL =      1.64 TIME LEFT: 172798.22
 STEP:  27 TIME =     0.06 SECS, INTEGRAL =      1.70 TIME LEFT: 172798.16
 STEP:  28 TIME =     0.06 SECS, INTEGRAL =      1.77 TIME LEFT: 172798.09
 STEP:  29 TIME =     0.05 SECS, INTEGRAL =      1.82 TIME LEFT: 172798.04
 STEP:  30 TIME =     0.06 SECS, INTEGRAL =      1.88 TIME LEFT: 172797.98
 STEP:  31 TIME =     0.06 SECS, INTEGRAL =      1.95 TIME LEFT: 172797.91
 STEP:  32 TIME =     0.05 SECS, INTEGRAL =      2.00 TIME LEFT: 172797.86
 STEP:  33 TIME =     0.05 SECS, INTEGRAL =      2.05 TIME LEFT: 172797.80
 STEP:  34 TIME =     0.05 SECS, INTEGRAL =      2.11 TIME LEFT: 172797.75
 STEP:  35 TIME =     0.06 SECS, INTEGRAL =      2.17 TIME LEFT: 172797.69
 STEP:  36 TIME =     0.06 SECS, INTEGRAL =      2.23 TIME LEFT: 172797.62
 STEP:  37 TIME =     0.06 SECS, INTEGRAL =      2.30 TIME LEFT: 172797.56
 STEP:  38 TIME =     0.06 SECS, INTEGRAL =      2.36 TIME LEFT: 172797.50
 STEP:  39 TIME =     0.05 SECS, INTEGRAL =      2.41 TIME LEFT: 172797.45
 STEP:  40 TIME =     0.06 SECS, INTEGRAL =      2.48 TIME LEFT: 172797.38
 STEP:  41 TIME =     0.06 SECS, INTEGRAL =      2.54 TIME LEFT: 172797.32
 STEP:  42 TIME =     0.05 SECS, INTEGRAL =      2.59 TIME LEFT: 172797.27
 STEP:  43 TIME =     0.07 SECS, INTEGRAL =      2.66 TIME LEFT: 172797.20
 STEP:  44 TIME =     0.06 SECS, INTEGRAL =      2.73 TIME LEFT: 172797.13
 STEP:  45 TIME =     0.07 SECS, INTEGRAL =      2.80 TIME LEFT: 172797.06
 STEP:  46 TIME =     0.05 SECS, INTEGRAL =      2.85 TIME LEFT: 172797.01
 STEP:  47 TIME =     0.06 SECS, INTEGRAL =      2.91 TIME LEFT: 172796.95
 STEP:  48 TIME =     0.07 SECS, INTEGRAL =      2.98 TIME LEFT: 172796.88
 STEP:  49 TIME =     0.05 SECS, INTEGRAL =      3.04 TIME LEFT: 172796.82
 STEP:  50 TIME =     0.06 SECS, INTEGRAL =      3.10 TIME LEFT: 172796.76
 STEP:  51 TIME =     0.06 SECS, INTEGRAL =      3.16 TIME LEFT: 172796.70
 STEP:  52 TIME =     0.06 SECS, INTEGRAL =      3.23 TIME LEFT: 172796.63
 STEP:  53 TIME =     0.06 SECS, INTEGRAL =      3.29 TIME LEFT: 172796.57
 STEP:  54 TIME =     0.06 SECS, INTEGRAL =      3.35 TIME LEFT: 172796.51
 STEP:  55 TIME =     0.06 SECS, INTEGRAL =      3.41 TIME LEFT: 172796.45
 STEP:  56 TIME =     0.06 SECS, INTEGRAL =      3.48 TIME LEFT: 172796.38
 STEP:  57 TIME =     0.06 SECS, INTEGRAL =      3.54 TIME LEFT: 172796.32
 STEP:  58                       INTEGRAL =      3.54 TIME LEFT: 172796.32
 STEP:  59                       INTEGRAL =      3.54 TIME LEFT: 172796.32
 STEP:  60                       INTEGRAL =      3.54 TIME LEFT: 172796.32
 STEP:  61                       INTEGRAL =      3.54 TIME LEFT: 172796.32
 STEP:  62                       INTEGRAL =      3.54 TIME LEFT: 172796.32
 STEP:  63                       INTEGRAL =      3.54 TIME LEFT: 172796.32
 STEP:  64                       INTEGRAL =      3.54 TIME LEFT: 172796.32
 STEP:  65                       INTEGRAL =      3.54 TIME LEFT: 172796.32
 STEP:  66                       INTEGRAL =      3.54 TIME LEFT: 172796.32
 STEP:  67                       INTEGRAL =      3.54 TIME LEFT: 172796.32
 STEP:  68                       INTEGRAL =      3.54 TIME LEFT: 172796.32
 STEP:  69                       INTEGRAL =      3.54 TIME LEFT: 172796.32
 STEP:  70                       INTEGRAL =      3.54 TIME LEFT: 172796.32
 STEP:  71                       INTEGRAL =      3.54 TIME LEFT: 172796.32
 STEP:  72                       INTEGRAL =      3.54 TIME LEFT: 172796.32
 STEP:  73                       INTEGRAL =      3.54 TIME LEFT: 172796.32
 STEP:  74                       INTEGRAL =      3.54 TIME LEFT: 172796.32
 STEP:  75                       INTEGRAL =      3.54 TIME LEFT: 172796.32
 STEP:  76                       INTEGRAL =      3.54 TIME LEFT: 172796.32
 STEP:  77                       INTEGRAL =      3.54 TIME LEFT: 172796.32
 STEP:  78                       INTEGRAL =      3.54 TIME LEFT: 172796.32
 STEP:  79                       INTEGRAL =      3.54 TIME LEFT: 172796.32
 STEP:  80                       INTEGRAL =      3.54 TIME LEFT: 172796.32
 STEP:  81                       INTEGRAL =      3.54 TIME LEFT: 172796.32
 STEP:  82                       INTEGRAL =      3.54 TIME LEFT: 172796.32
 STEP:  83                       INTEGRAL =      3.54 TIME LEFT: 172796.32
 STEP:  84                       INTEGRAL =      3.54 TIME LEFT: 172796.32
 STEP:  85                       INTEGRAL =      3.54 TIME LEFT: 172796.32
 STEP:  86                       INTEGRAL =      3.54 TIME LEFT: 172796.32
 STEP:  87                       INTEGRAL =      3.54 TIME LEFT: 172796.32
 STEP:  88 TIME =     0.05 SECS, INTEGRAL =      3.59 TIME LEFT: 172796.27
 STEP:  89 TIME =     0.05 SECS, INTEGRAL =      3.65 TIME LEFT: 172796.21
 STEP:  90 TIME =     0.05 SECS, INTEGRAL =      3.70 TIME LEFT: 172796.16
 STEP:  91                       INTEGRAL =      3.70 TIME LEFT: 172796.16
 STEP:  92                       INTEGRAL =      3.70 TIME LEFT: 172796.16
 STEP:  93                       INTEGRAL =      3.70 TIME LEFT: 172796.16
 STEP:  94                       INTEGRAL =      3.70 TIME LEFT: 172796.16
 STEP:  95                       INTEGRAL =      3.70 TIME LEFT: 172796.16
 STEP:  96                       INTEGRAL =      3.70 TIME LEFT: 172796.16
 STEP:  97                       INTEGRAL =      3.70 TIME LEFT: 172796.16
 STEP:  98                       INTEGRAL =      3.70 TIME LEFT: 172796.16
 STEP:  99                       INTEGRAL =      3.70 TIME LEFT: 172796.16
 STEP: 100                       INTEGRAL =      3.70 TIME LEFT: 172796.16
 STEP: 101                       INTEGRAL =      3.70 TIME LEFT: 172796.16
 STEP: 102                       INTEGRAL =      3.70 TIME LEFT: 172796.16
 STEP: 103                       INTEGRAL =      3.70 TIME LEFT: 172796.16
 STEP: 104                       INTEGRAL =      3.70 TIME LEFT: 172796.16
 STEP: 105                       INTEGRAL =      3.70 TIME LEFT: 172796.16
 STEP: 106                       INTEGRAL =      3.70 TIME LEFT: 172796.16
 STEP: 107                       INTEGRAL =      3.70 TIME LEFT: 172796.16
 STEP: 108                       INTEGRAL =      3.70 TIME LEFT: 172796.16
 STEP: 109                       INTEGRAL =      3.70 TIME LEFT: 172796.16
 STEP: 110                       INTEGRAL =      3.70 TIME LEFT: 172796.16
 STEP: 111                       INTEGRAL =      3.70 TIME LEFT: 172796.16
 STEP: 112                       INTEGRAL =      3.70 TIME LEFT: 172796.16
 STEP: 113                       INTEGRAL =      3.70 TIME LEFT: 172796.16
 STEP: 114                       INTEGRAL =      3.70 TIME LEFT: 172796.16
 STEP: 115                       INTEGRAL =      3.70 TIME LEFT: 172796.16
 STEP: 116                       INTEGRAL =      3.70 TIME LEFT: 172796.16
 STEP: 117                       INTEGRAL =      3.70 TIME LEFT: 172796.16
 STEP: 118                       INTEGRAL =      3.70 TIME LEFT: 172796.16
 STEP: 119                       INTEGRAL =      3.70 TIME LEFT: 172796.16
 STEP: 120                       INTEGRAL =      3.70 TIME LEFT: 172796.16
           INITIAL VELOCITY IN DRC (Angstroms/Femtosecond)
        -0.01970        -0.00437         0.00739
         0.02680        -0.01211         0.00652
        -0.00755        -0.00600         0.00134
         0.00433        -0.00412         0.00084
        -0.00154         0.00547         0.00046
        -0.01272        -0.00327         0.00239
         0.01025         0.01858        -0.02682
         0.00346        -0.00135         0.00308
        -0.00303        -0.00034        -0.00134
        -0.00160        -0.00266        -0.00002
        -0.00200         0.00015         0.00865
        -0.13430        -0.17989         0.24502
        -0.00062        -0.00026         0.00071
        -0.00049         0.00138         0.00560
        -0.00066        -0.00281         0.00457
        -0.00003        -0.00031         0.00010
         0.00080        -0.00309        -0.00624
        -0.00006        -0.00019         0.00098
        -0.00000        -0.00100        -0.00059
         0.01970         0.00437        -0.00739
        -0.02680         0.01211        -0.00652
         0.00755         0.00600        -0.00134
        -0.00433         0.00412        -0.00084
         0.00154        -0.00547        -0.00046
         0.01272         0.00327        -0.00239
        -0.01025        -0.01858         0.02682
        -0.00346         0.00135        -0.00308
         0.00303         0.00033         0.00133
         0.00160         0.00265         0.00001
         0.00453        -0.00204         0.00168
         0.00200        -0.00015        -0.00865
         0.13430         0.17989        -0.24502
         0.00062         0.00026        -0.00071
         0.00066         0.00281        -0.00457
         0.00049        -0.00138        -0.00560
         0.00003         0.00031        -0.00009
        -0.00080         0.00309         0.00625
         0.00006         0.00019        -0.00098
        -0.00000         0.00100         0.00059
        -0.00454         0.00204        -0.00168


     POINT   POTENTIAL  +  ENERGY LOST   =   TOTAL      ERROR    REF%   MOVEMENT
       1      22.58847      0.00000         22.58847   0.00000     1   %  0.0000
       2      17.88137      0.00000         17.88137  -4.70709     2   %  0.4287
       3      17.31235      0.00000         17.31235  -0.56902     3   %  0.4680
       4      17.01771      0.29848         17.31619  -0.56518     4   %  0.4805
       5      16.95263      0.36384         17.31646  -0.56491     5   %  0.4835
       6      16.89739      0.41924         17.31664  -0.56474     6   %  0.4861
       7      16.83844      0.47837         17.31680  -0.56457     7   %  0.4890
       8      16.77489      0.54211         17.31701  -0.56437     8   %  0.4921
       9      16.71209      0.60512         17.31721  -0.56416     9   %  0.4953
      10      16.65078      0.66663         17.31741  -0.56396    10   %  0.4984
      11      16.59032      0.72729         17.31761  -0.56376    11   %  0.5016
      12      16.53040      0.78741         17.31781  -0.56356    12   %  0.5048
      13      16.47108      0.84693         17.31801  -0.56336    13   %  0.5080
      14      16.41239      0.90582         17.31821  -0.56316    14   %  0.5112
      15      16.35434      0.96407         17.31841  -0.56296    15   %  0.5145
      16      16.29692      1.02169         17.31861  -0.56276    16   %  0.5177
      17      16.24011      1.07870         17.31881  -0.56256    17   %  0.5210
      18      16.18390      1.13511         17.31901  -0.56236    18   %  0.5243
      19      16.12829      1.19092         17.31921  -0.56216    19   %  0.5277
      20      16.07327      1.24614         17.31941  -0.56196    20   %  0.5310
      21      16.01882      1.30079         17.31961  -0.56176    21   %  0.5344
      22      15.96494      1.35487         17.31981  -0.56156    22   %  0.5377
      23      15.91162      1.40839         17.32001  -0.56136    23   %  0.5411
      24      15.85885      1.46136         17.32021  -0.56116    24   %  0.5445
      25      15.80661      1.51380         17.32041  -0.56096    25   %  0.5480
      26      15.75491      1.56570         17.32061  -0.56076    26   %  0.5514
      27      15.70372      1.61709         17.32081  -0.56057    27   %  0.5548
      28      15.65304      1.66796         17.32100  -0.56037    28   %  0.5583
      29      15.60287      1.71833         17.32120  -0.56017    29   %  0.5617
      30      15.55318      1.76822         17.32140  -0.55997    30   %  0.5652
      31      15.50398      1.81762         17.32160  -0.55977    31   %  0.5686
      32      15.45526      1.86654         17.32180  -0.55957    32   %  0.5721
      33      15.40699      1.91501         17.32200  -0.55937    33   %  0.5755
      34      15.35919      1.96301         17.32220  -0.55918    34   %  0.5790
      35      15.31183      2.01057         17.32239  -0.55898    35   %  0.5824
      36      15.26491      2.05769         17.32259  -0.55878    36   %  0.5859
      37      15.21842      2.10437         17.32279  -0.55858    37   %  0.5893
      38      15.17235      2.15064         17.32299  -0.55838    38   %  0.5928
      39      15.12670      2.19648         17.32319  -0.55819    39   %  0.5962
      40      15.08146      2.24193         17.32338  -0.55799    40   %  0.5997
      41      15.03661      2.28697         17.32358  -0.55779    41   %  0.6032
      42      14.99216      2.33162         17.32378  -0.55759    42   %  0.6066
      43      14.94809      2.37589         17.32397  -0.55740    43   %  0.6101
      44      14.90440      2.41977         17.32417  -0.55720    44   %  0.6136
      45      14.86107      2.46329         17.32437  -0.55700    45   %  0.6171
      46      14.81811      2.50645         17.32457  -0.55681    46   %  0.6205
      47      14.77551      2.54926         17.32476  -0.55661    47   %  0.6240
      48      14.73325      2.59171         17.32496  -0.55641    48   %  0.6275
      49      14.69133      2.63382         17.32516  -0.55622    49   %  0.6310
      50      14.64975      2.67561         17.32535  -0.55602    50   %  0.6345
      51      14.60849      2.71706         17.32555  -0.55582    51   %  0.6380
      52      14.56755      2.75819         17.32575  -0.55563    52   %  0.6415
      53      14.52693      2.79902         17.32594  -0.55543    53   %  0.6450
      54      14.48661      2.83953         17.32614  -0.55523    54   %  0.6485
      55      14.44659      2.87975         17.32633  -0.55504    55   %  0.6520
      56      14.40686      2.91967         17.32653  -0.55484    56   %  0.6556
      57      14.36742      2.95931         17.32673  -0.55465    57   %  0.6591
      58      14.32825      2.99867         17.32692  -0.55445    58   %  0.6626
      59      14.28936      3.03776         17.32712  -0.55425    59   %  0.6662
      60      14.25073      3.07658         17.32731  -0.55406    60   %  0.6698
      61      14.21237      3.11514         17.32751  -0.55386    61   %  0.6733
      62      14.17425      3.15346         17.32770  -0.55367    62   %  0.6769
      63      14.13638      3.19152         17.32790  -0.55347    63   %  0.6805
      64      14.09874      3.22935         17.32809  -0.55328    64   %  0.6841
      65      14.06134      3.26695         17.32829  -0.55308    65   %  0.6877
      66      14.02415      3.30433         17.32848  -0.55289    66   %  0.6914
      67      13.98719      3.34149         17.32868  -0.55269    67   %  0.6950
      68      13.95044      3.37844         17.32887  -0.55250    68   %  0.6987
      69      13.91388      3.41518         17.32907  -0.55230    69   %  0.7023
      70      13.87753      3.45173         17.32926  -0.55211    70   %  0.7060
      71      13.84136      3.48810         17.32946  -0.55191    71   %  0.7097
      72      13.80537      3.52428         17.32965  -0.55172    72   %  0.7135
      73      13.76956      3.56029         17.32985  -0.55153    73   %  0.7172
      74      13.73391      3.59613         17.33004  -0.55133    74   %  0.7209
      75      13.69842      3.63181         17.33023  -0.55114    75   %  0.7247
      76      13.66308      3.66734         17.33043  -0.55094    76   %  0.7285
      77      13.62789      3.70273         17.33062  -0.55075    77   %  0.7323
      78      13.59283      3.73798         17.33081  -0.55056    78   %  0.7362
      79      13.55790      3.77311         17.33101  -0.55036    79   %  0.7400
      80      13.52309      3.80811         17.33120  -0.55017    80   %  0.7439
      81      13.48839      3.84301         17.33139  -0.54998    81   %  0.7478
      82      13.45379      3.87780         17.33159  -0.54978    82   %  0.7517
      83      13.41929      3.91249         17.33178  -0.54959    83   %  0.7557
      84      13.38488      3.94709         17.33197  -0.54940    84   %  0.7596
      85      13.35054      3.98162         17.33217  -0.54921    85   %  0.7636
      86      13.31628      4.01608         17.33236  -0.54901    86   %  0.7677
      87      13.28208      4.05048         17.33255  -0.54882    87   %  0.7717
      88      13.24793      4.08482         17.33274  -0.54863    88   %  0.7758
      89      13.21382      4.11912         17.33294  -0.54844    89   %  0.7799
      90      13.17975      4.15338         17.33313  -0.54824    90   %  0.7841
      91      13.14570      4.18762         17.33332  -0.54805    91   %  0.7883
      92      13.11167      4.22184         17.33351  -0.54786    92   %  0.7925
      93      13.07765      4.25605         17.33371  -0.54767    93   %  0.7967
      94      13.04363      4.29027         17.33390  -0.54747    94   %  0.8010
      95      13.00959      4.32450         17.33409  -0.54728    95   %  0.8054
      96      12.97554      4.35874         17.33428  -0.54709    96   %  0.8097
      97      12.94145      4.39302         17.33447  -0.54690    97   %  0.8141
      98      12.90732      4.42734         17.33466  -0.54671    98   %  0.8186
      99      12.87315      4.46171         17.33485  -0.54652    99   %  0.8231
     100      12.83891      4.49614         17.33505  -0.54633   100   %  0.8276


          FINAL GEOMETRY OBTAINED                                 CHARGE
 PM7 CHARGE=0 IRC=-1 LARGE=100 LET CYCLES=10000
 (irc)

   O    0.000000  0    0.000000  0    0.000000  0   0  0  0   -0.5578     100AA*
   C    1.226518  1    0.000000  0    0.000000  0   1  0  0    0.5267     100AB*
   C    1.455025  1  118.826278  1    0.000000  0   2  1  0   -0.3193     100AC*
   C    1.347481  1  120.790664  1  167.752719  1   3  2  1   -0.0206     100AD*
   C    1.442157  1  121.270781  1    2.227552  1   4  3  2   -0.2620     100AE*
   C    1.347120  1  120.383131  1    4.921222  1   5  4  3   -0.0377     100AF*
   C    1.468997  1  122.384073  1  353.349797  1   6  5  4   -0.3252     100AG*
   H    1.087480  1  115.769008  1  349.188856  1   3  2  1    0.1773     100AH*
   H    1.091641  1  121.251126  1  181.698875  1   4  3  2    0.1473     100AI*
   H    1.086604  1  117.887399  1  182.890191  1   5  4  3    0.1590     100AJ*
   C    1.527250  1  112.724455  1  140.865353  1   7  6  5   -0.2491     100AK*
   H    1.187364  1  100.409936  1  253.367992  1   7  6  5    0.3015     100AL*
   C    1.495703  1  115.172750  1  182.009156  1  11  7  6   -0.1160     100AM*
   H    1.114825  1  108.106394  1   58.255918  1  11  7  6    0.1592     100AN*
   H    1.113974  1  109.190814  1  303.808575  1  11  7  6    0.1535     100AO*
   C    1.333017  1  122.434800  1  229.592419  1  13 11  7   -0.3376     100AP*
   H    1.091559  1  115.550419  1   52.514241  1  13 11  7    0.1603     100AQ*
   H    1.078524  1  123.981695  1    3.045621  1  16 13 11    0.1461     100AR*
   H    1.078306  1  123.338579  1  182.601364  1  16 13 11    0.1436     100AS*
   O    1.536480  1  149.489049  1  235.758357  1  12  7  6   -0.5604     100AT*
   C    1.226259  1  116.224900  1  283.142358  1  20 12  7    0.5266     100AU*
   C    1.455286  1  118.950894  1  140.430330  1  21 20 12   -0.3194     100AV*
   C    1.347728  1  120.900882  1  192.059459  1  22 21 20   -0.0215     100AW*
   C    1.441370  1  121.218501  1  357.923275  1  23 22 21   -0.2640     100AX*
   C    1.347699  1  120.322277  1  355.015953  1  24 23 22   -0.0367     100AY*
   C    1.466882  1  122.386927  1    7.010156  1  25 24 23   -0.3283     100B@*
   H    1.087481  1  115.717362  1   10.814751  1  22 21 20    0.1770     100BA*
   H    1.091528  1  121.258843  1  178.486841  1  23 22 21    0.1471     100BB*
   H    1.086405  1  117.963071  1  177.167537  1  24 23 22    0.1588     100BC*
   H    1.091902  1  121.753683  1  184.387538  1  25 24 23    0.1533     100BD*
   C    1.525889  1  113.016752  1  216.759822  1  26 25 24   -0.2493     100BE*
   H    1.528571  1  116.508068  1  217.676392  1   1  2  3    0.3050     100BF*
   C    1.495480  1  115.310418  1  177.408641  1  31 26 25   -0.1136     100BG*
   H    1.114213  1  109.187005  1   55.648156  1  31 26 25    0.1539     100BH*
   H    1.115039  1  108.100992  1  301.253711  1  31 26 25    0.1594     100BI*
   C    1.333129  1  122.429537  1  132.348075  1  33 31 26   -0.3413     100BJ*
   H    1.091736  1  115.578904  1  309.366458  1  33 31 26    0.1615     100BK*
   H    1.078334  1  123.987624  1  356.978957  1  36 33 31    0.1457     100BL*
   H    1.078224  1  123.326267  1  177.304914  1  36 33 31    0.1435     100BM*
   H    1.091857  1  121.845598  1  175.833509  1   6  5  4    0.1536     100BN*


     POINT   POTENTIAL  +  ENERGY LOST   =   TOTAL      ERROR    REF%   MOVEMENT
     101      12.80460      4.53064         17.33524  -0.54613   101   %  0.8322
     102      12.77021      4.56521         17.33543  -0.54594   102   %  0.8368
     103      12.73574      4.59988         17.33562  -0.54575   103   %  0.8415
     104      12.70116      4.63465         17.33581  -0.54556   104   %  0.8462
     105      12.66647      4.66953         17.33600  -0.54537   105   %  0.8510
     106      12.63167      4.70453         17.33619  -0.54518   106   %  0.8558
     107      12.59673      4.73966         17.33638  -0.54499   107   %  0.8607
     108      12.56165      4.77493         17.33657  -0.54480   108   %  0.8656
     109      12.52642      4.81035         17.33676  -0.54461   109   %  0.8706
     110      12.49102      4.84593         17.33695  -0.54442   110   %  0.8757
     111      12.45546      4.88169         17.33715  -0.54423   111   %  0.8808
     112      12.41971      4.91763         17.33734  -0.54404   112   %  0.8860
     113      12.38376      4.95376         17.33753  -0.54385   113   %  0.8912
     114      12.34762      4.99010         17.33772  -0.54365   114   %  0.8965
     115      12.31126      5.02665         17.33791  -0.54346   115   %  0.9019
     116      12.27467      5.06343         17.33810  -0.54327   116   %  0.9073
     117      12.23785      5.10044         17.33829  -0.54308   117   %  0.9128
     118      12.20078      5.13770         17.33848  -0.54289   118   %  0.9184
     119      12.16345      5.17522         17.33867  -0.54270   119   %  0.9241
     120      12.12586      5.21300         17.33886  -0.54251   120   %  0.9298
     121      12.08795      5.25107         17.33902  -0.54235   121   %  0.9357
     122      12.04673      5.29253         17.33926  -0.54211   122   %  0.9421
     123      12.00968      5.32976         17.33944  -0.54193   123   %  0.9479
     124      11.97108      5.36854         17.33962  -0.54175   124   %  0.9539
     125      11.93189      5.40792         17.33981  -0.54156   125   %  0.9601
     126      11.89238      5.44762         17.34000  -0.54137   126   %  0.9663
     127      11.85255      5.48764         17.34019  -0.54118   127   %  0.9727
     128      11.81236      5.52802         17.34038  -0.54099   128   %  0.9791
     129      11.77180      5.56877         17.34057  -0.54080   129   %  0.9857
     130      11.73085      5.60991         17.34076  -0.54061   130   %  0.9923
     131      11.68951      5.65144         17.34095  -0.54042   131   %  0.9991
     132      11.64776      5.69338         17.34114  -0.54023   132   %  1.0060
     133      11.60559      5.73575         17.34133  -0.54004   133   %  1.0129
     134      11.56298      5.77855         17.34152  -0.53985   134   %  1.0200
     135      11.51992      5.82180         17.34171  -0.53966   135   %  1.0272
     136      11.47640      5.86551         17.34190  -0.53947   136   %  1.0345
     137      11.43240      5.90969         17.34209  -0.53928   137   %  1.0420
     138      11.38791      5.95437         17.34228  -0.53909   138   %  1.0495
     139      11.34293      5.99955         17.34247  -0.53890   139   %  1.0572
     140      11.29739      6.04529         17.34268  -0.53869   140   %  1.0651
     141      11.25319      6.08967         17.34285  -0.53852   141   %  1.0727
     142      11.20678      6.13626         17.34304  -0.53833   142   %  1.0808
     143      11.15961      6.18362         17.34323  -0.53814   143   %  1.0890
     144      11.11194      6.23148         17.34342  -0.53795   144   %  1.0973
     145      11.06373      6.27989         17.34361  -0.53776   145   %  1.1058
     146      11.01493      6.32887         17.34380  -0.53757   146   %  1.1145
     147      10.96554      6.37845         17.34399  -0.53738   147   %  1.1232
     148      10.91556      6.42862         17.34418  -0.53719   148   %  1.1322
     149      10.86497      6.47940         17.34437  -0.53700   149   %  1.1413
     150      10.81378      6.53078         17.34456  -0.53681   150   %  1.1505
     151      10.76199      6.58277         17.34475  -0.53662   151   %  1.1599
     152      10.70958      6.63537         17.34494  -0.53643   152   %  1.1694
     153      10.65656      6.68858         17.34514  -0.53624   153   %  1.1791
     154      10.60293      6.74239         17.34533  -0.53604   154   %  1.1890
     155      10.54871      6.79681         17.34552  -0.53585   155   %  1.1990
     156      10.49388      6.85183         17.34571  -0.53566   156   %  1.2092
     157      10.43846      6.90744         17.34590  -0.53547   157   %  1.2195
     158      10.38247      6.96362         17.34609  -0.53528   158   %  1.2300
     159      10.32590      7.02038         17.34628  -0.53509   159   %  1.2406
     160      10.26879      7.07769         17.34647  -0.53490   160   %  1.2513
     161      10.21113      7.13554         17.34667  -0.53470   161   %  1.2623
     162      10.15295      7.19391         17.34686  -0.53451   162   %  1.2733
     163      10.09426      7.25279         17.34705  -0.53432   163   %  1.2845
     164      10.03508      7.31216         17.34724  -0.53413   164   %  1.2959
     165       9.97544      7.37199         17.34744  -0.53393   165   %  1.3074
     166       9.91536      7.43227         17.34763  -0.53374   166   %  1.3190
     167       9.85485      7.49298         17.34782  -0.53355   167   %  1.3308
     168       9.79394      7.55408         17.34802  -0.53335   168   %  1.3427
     169       9.73265      7.61556         17.34821  -0.53316   169   %  1.3547
     170       9.67100      7.67740         17.34840  -0.53297   170   %  1.3668
     171       9.60902      7.73957         17.34860  -0.53277   171   %  1.3791
     172       9.54674      7.80206         17.34879  -0.53258   172   %  1.3914
     173       9.48416      7.86483         17.34899  -0.53238   173   %  1.4039
     174       9.42132      7.92787         17.34918  -0.53219   174   %  1.4165
     175       9.35823      7.99115         17.34938  -0.53200   175   %  1.4292
     176       9.29492      8.05465         17.34957  -0.53180   176   %  1.4420
     177       9.23140      8.11836         17.34977  -0.53161   177   %  1.4550
     178       9.16770      8.18226         17.34996  -0.53141   178   %  1.4680
     179       9.10384      8.24632         17.35016  -0.53122   179   %  1.4811
     180       9.03983      8.31052         17.35035  -0.53102   180   %  1.4943
     181       8.97569      8.37486         17.35055  -0.53082   181   %  1.5076
     182       8.91143      8.43931         17.35074  -0.53063   182   %  1.5210
     183       8.84708      8.50386         17.35094  -0.53043   183   %  1.5344
     184       8.78264      8.56849         17.35113  -0.53024   184   %  1.5480
     185       8.71813      8.63319         17.35133  -0.53004   185   %  1.5616
     186       8.65357      8.69795         17.35153  -0.52985   186   %  1.5754
     187       8.58896      8.76276         17.35172  -0.52965   187   %  1.5892
     188       8.52432      8.82760         17.35192  -0.52945   188   %  1.6031
     189       8.45966      8.89246         17.35211  -0.52926   189   %  1.6170
     190       8.39498      8.95733         17.35231  -0.52906   190   %  1.6311
     191       8.33030      9.02220         17.35251  -0.52887   191   %  1.6452
     192       8.26563      9.08707         17.35270  -0.52867   192   %  1.6594
     193       8.20098      9.15192         17.35290  -0.52847   193   %  1.6736
     194       8.13635      9.21675         17.35310  -0.52828   194   %  1.6880
     195       8.07175      9.28155         17.35329  -0.52808   195   %  1.7024
     196       8.00718      9.34631         17.35349  -0.52788   196   %  1.7169
     197       7.94266      9.41102         17.35368  -0.52769   197   %  1.7314
     198       7.87820      9.47569         17.35388  -0.52749   198   %  1.7460
     199       7.81378      9.54029         17.35408  -0.52729   199   %  1.7607
     200       7.74943      9.60484         17.35427  -0.52710   200   %  1.7755


          FINAL GEOMETRY OBTAINED                                 CHARGE
 PM7 CHARGE=0 IRC=-1 LARGE=100 LET CYCLES=10000
 (irc)

   O    0.000000  0    0.000000  0    0.000000  0   0  0  0   -0.5400     200AA*
   C    1.218943  1    0.000000  0    0.000000  0   1  0  0    0.5155     200AB*
   C    1.461709  1  118.842635  1    0.000000  0   2  1  0   -0.3124     200AC*
   C    1.344598  1  120.722011  1  168.581040  1   3  2  1   -0.0301     200AD*
   C    1.446858  1  121.632587  1    2.824279  1   4  3  2   -0.2521     200AE*
   C    1.345097  1  120.851616  1    3.930846  1   5  4  3   -0.0494     200AF*
   C    1.483319  1  122.109852  1  352.091474  1   6  5  4   -0.2948     200AG*
   H    1.087451  1  115.748779  1  349.844906  1   3  2  1    0.1767     200AH*
   H    1.091827  1  121.312139  1  181.732566  1   4  3  2    0.1474     200AI*
   H    1.087305  1  117.316136  1  181.851781  1   5  4  3    0.1584     200AJ*
   C    1.535266  1  111.683264  1  140.980847  1   7  6  5   -0.2549     200AK*
   H    1.163353  1  101.269856  1  256.238086  1   7  6  5    0.2745     200AL*
   C    1.496829  1  115.053765  1  182.613072  1  11  7  6   -0.1148     200AM*
   H    1.113940  1  108.067070  1   59.062345  1  11  7  6    0.1586     200AN*
   H    1.113145  1  109.143291  1  304.564863  1  11  7  6    0.1535     200AO*
   C    1.333274  1  122.871088  1  230.625285  1  13 11  7   -0.3389     200AP*
   H    1.092030  1  115.373809  1   53.055159  1  13 11  7    0.1610     200AQ*
   H    1.078278  1  124.071282  1    2.666695  1  16 13 11    0.1458     200AR*
   H    1.078448  1  123.258254  1  182.310185  1  16 13 11    0.1435     200AS*
   O    1.637405  1  147.951014  1  238.142435  1  12  7  6   -0.5412     200AT*
   C    1.218996  1  114.396336  1  281.641481  1  20 12  7    0.5154     200AU*
   C    1.461893  1  118.927324  1  139.983959  1  21 20 12   -0.3126     200AV*
   C    1.344801  1  120.784168  1  191.305322  1  22 21 20   -0.0305     200AW*
   C    1.446521  1  121.648970  1  357.138620  1  23 22 21   -0.2537     200AX*
   C    1.345473  1  120.797207  1  356.191905  1  24 23 22   -0.0484     200AY*
   C    1.482686  1  122.052881  1    8.391465  1  25 24 23   -0.2964     200B@*
   H    1.087490  1  115.738562  1   10.101386  1  22 21 20    0.1765     200BA*
   H    1.091801  1  121.291253  1  178.298705  1  23 22 21    0.1473     200BB*
   H    1.087167  1  117.359587  1  178.391055  1  24 23 22    0.1583     200BC*
   H    1.090725  1  122.159325  1  184.095028  1  25 24 23    0.1537     200BD*
   C    1.535084  1  111.861166  1  216.853159  1  26 25 24   -0.2550     200BE*
   H    1.629787  1  114.802669  1  218.220468  1   1  2  3    0.2765     200BF*
   C    1.496840  1  115.228467  1  176.622104  1  31 26 25   -0.1132     200BG*
   H    1.113226  1  109.129214  1   54.661185  1  31 26 25    0.1537     200BH*
   H    1.114120  1  108.001122  1  300.202093  1  31 26 25    0.1589     200BI*
   C    1.333407  1  122.879560  1  131.004604  1  33 31 26   -0.3415     200BJ*
   H    1.092138  1  115.403178  1  308.480810  1  33 31 26    0.1619     200BK*
   H    1.078136  1  124.075214  1  357.305556  1  36 33 31    0.1454     200BL*
   H    1.078405  1  123.249841  1  177.618786  1  36 33 31    0.1435     200BM*
   H    1.090778  1  122.185220  1  176.114962  1   6  5  4    0.1539     200BN*


     POINT   POTENTIAL  +  ENERGY LOST   =   TOTAL      ERROR    REF%   MOVEMENT
     201       7.68515      9.66932         17.35447  -0.52690   201   %  1.7903
     202       7.62094      9.73373         17.35467  -0.52670   202   %  1.8052
     203       7.55680      9.79806         17.35486  -0.52651   203   %  1.8202
     204       7.49275      9.86231         17.35506  -0.52631   204   %  1.8352
     205       7.42878      9.92648         17.35526  -0.52611   205   %  1.8503
     206       7.36490      9.99056         17.35545  -0.52592   206   %  1.8654
     207       7.30111     10.05455         17.35565  -0.52572   207   %  1.8807
     208       7.23741     10.11844         17.35585  -0.52552   208   %  1.8960
     209       7.17381     10.18223         17.35605  -0.52533   209   %  1.9113
     210       7.11032     10.24592         17.35624  -0.52513   210   %  1.9267
     211       7.04693     10.30951         17.35644  -0.52493   211   %  1.9422
     212       6.98364     10.37299         17.35664  -0.52474   212   %  1.9578
     213       6.92047     10.43637         17.35683  -0.52454   213   %  1.9734
     214       6.85741     10.49962         17.35703  -0.52434   214   %  1.9891
     215       6.79446     10.56277         17.35723  -0.52414   215   %  2.0048
     216       6.73162     10.62580         17.35742  -0.52395   216   %  2.0206
     217       6.66891     10.68871         17.35762  -0.52375   217   %  2.0365
     218       6.60632     10.75150         17.35782  -0.52355   218   %  2.0524
     219       6.54385     10.81417         17.35801  -0.52336   219   %  2.0684
     220       6.48150     10.87671         17.35821  -0.52316   220   %  2.0845
     221       6.41928     10.93913         17.35841  -0.52296   221   %  2.1006
     222       6.35719     11.00142         17.35861  -0.52277   222   %  2.1168
     223       6.29522     11.06358         17.35880  -0.52257   223   %  2.1330
     224       6.23339     11.12561         17.35900  -0.52237   224   %  2.1494
     225       6.17168     11.18751         17.35920  -0.52218   225   %  2.1657
     226       6.11011     11.24928         17.35939  -0.52198   226   %  2.1822
     227       6.04868     11.31091         17.35959  -0.52178   227   %  2.1987
     228       5.98737     11.37241         17.35979  -0.52158   228   %  2.2153
     229       5.92621     11.43378         17.35998  -0.52139   229   %  2.2319
     230       5.86518     11.49500         17.36018  -0.52119   230   %  2.2486
     231       5.80429     11.55609         17.36038  -0.52099   231   %  2.2654
     232       5.74354     11.61703         17.36058  -0.52080   232   %  2.2822
     233       5.68293     11.67784         17.36077  -0.52060   233   %  2.2991
     234       5.62247     11.73850         17.36097  -0.52040   234   %  2.3161
     235       5.56215     11.79902         17.36117  -0.52021   235   %  2.3331
     236       5.50197     11.85940         17.36136  -0.52001   236   %  2.3502
     237       5.44193     11.91963         17.36156  -0.51981   237   %  2.3673
     238       5.38204     11.97971         17.36176  -0.51961   238   %  2.3846
     239       5.32230     12.03965         17.36195  -0.51942   239   %  2.4018
     240       5.26270     12.09945         17.36215  -0.51922   240   %  2.4192
     241       5.20326     12.15909         17.36235  -0.51902   241   %  2.4366
     242       5.14396     12.21859         17.36254  -0.51883   242   %  2.4541
     243       5.08480     12.27794         17.36274  -0.51863   243   %  2.4716
     244       5.02580     12.33714         17.36294  -0.51843   244   %  2.4892
     245       4.96695     12.39618         17.36314  -0.51824   245   %  2.5069
     246       4.90825     12.45508         17.36333  -0.51804   246   %  2.5246
     247       4.84970     12.51383         17.36353  -0.51784   247   %  2.5425
     248       4.79131     12.57242         17.36373  -0.51765   248   %  2.5603
     249       4.73306     12.63086         17.36392  -0.51745   249   %  2.5783
     250       4.67497     12.68915         17.36412  -0.51725   250   %  2.5963
     251       4.61704     12.74728         17.36432  -0.51705   251   %  2.6143
     252       4.55925     12.80526         17.36451  -0.51686   252   %  2.6325
     253       4.50162     12.86309         17.36471  -0.51666   253   %  2.6507
     254       4.44415     12.92076         17.36491  -0.51646   254   %  2.6689
     255       4.38683     12.97827         17.36510  -0.51627   255   %  2.6873
     256       4.32967     13.03563         17.36530  -0.51607   256   %  2.7057
     257       4.27266     13.09284         17.36550  -0.51587   257   %  2.7241
     258       4.21581     13.14988         17.36570  -0.51568   258   %  2.7427
     259       4.15912     13.20677         17.36589  -0.51548   259   %  2.7613
     260       4.10258     13.26350         17.36609  -0.51528   260   %  2.7799
     261       4.04621     13.32008         17.36629  -0.51509   261   %  2.7986
     262       3.98999     13.37650         17.36648  -0.51489   262   %  2.8174
     263       3.93393     13.43275         17.36668  -0.51469   263   %  2.8363
     264       3.87802     13.48885         17.36688  -0.51449   264   %  2.8553
     265       3.82228     13.54479         17.36707  -0.51430   265   %  2.8743
     266       3.76669     13.60058         17.36727  -0.51410   266   %  2.8933
     267       3.71127     13.65620         17.36747  -0.51390   267   %  2.9125
     268       3.65600     13.71166         17.36766  -0.51371   268   %  2.9317
     269       3.60090     13.76696         17.36786  -0.51351   269   %  2.9510
     270       3.54595     13.82210         17.36806  -0.51331   270   %  2.9703
     271       3.49117     13.87708         17.36825  -0.51312   271   %  2.9897
     272       3.43655     13.93190         17.36845  -0.51292   272   %  3.0092
     273       3.38208     13.98656         17.36865  -0.51272   273   %  3.0288
     274       3.32778     14.04106         17.36885  -0.51253   274   %  3.0484
     275       3.27364     14.09540         17.36904  -0.51233   275   %  3.0681
     276       3.21967     14.14957         17.36924  -0.51213   276   %  3.0878
     277       3.16585     14.20359         17.36944  -0.51194   277   %  3.1077
     278       3.11220     14.25744         17.36963  -0.51174   278   %  3.1276
     279       3.05870     14.31112         17.36983  -0.51154   279   %  3.1476
     280       3.00537     14.36465         17.37003  -0.51135   280   %  3.1676
     281       2.95221     14.41801         17.37022  -0.51115   281   %  3.1877
     282       2.89920     14.47122         17.37042  -0.51095   282   %  3.2079
     283       2.84636     14.52426         17.37062  -0.51076   283   %  3.2282
     284       2.79368     14.57713         17.37081  -0.51056   284   %  3.2485
     285       2.74116     14.62985         17.37101  -0.51036   285   %  3.2690
     286       2.68881     14.68240         17.37121  -0.51017   286   %  3.2895
     287       2.63662     14.73479         17.37140  -0.50997   287   %  3.3100
     288       2.58459     14.78701         17.37160  -0.50977   288   %  3.3307
     289       2.53273     14.83907         17.37180  -0.50958   289   %  3.3514
     290       2.48103     14.89097         17.37199  -0.50938   290   %  3.3722
     291       2.42949     14.94270         17.37219  -0.50918   291   %  3.3930
     292       2.37812     14.99427         17.37239  -0.50899   292   %  3.4140
     293       2.32691     15.04567         17.37258  -0.50879   293   %  3.4350
     294       2.27587     15.09691         17.37278  -0.50859   294   %  3.4561
     295       2.22499     15.14799         17.37298  -0.50840   295   %  3.4773
     296       2.17427     15.19890         17.37317  -0.50820   296   %  3.4985
     297       2.12372     15.24965         17.37337  -0.50800   297   %  3.5198
     298       2.07333     15.30023         17.37357  -0.50781   298   %  3.5412
     299       2.02311     15.35065         17.37376  -0.50761   299   %  3.5627
     300       1.97305     15.40091         17.37396  -0.50741   300   %  3.5843


          FINAL GEOMETRY OBTAINED                                 CHARGE
 PM7 CHARGE=0 IRC=-1 LARGE=100 LET CYCLES=10000
 (irc)

   O    0.000000  0    0.000000  0    0.000000  0   0  0  0   -0.5278     300AA*
   C    1.216323  1    0.000000  0    0.000000  0   1  0  0    0.5082     300AB*
   C    1.466055  1  119.267204  1    0.000000  0   2  1  0   -0.3083     300AC*
   C    1.344039  1  121.048153  1  171.763204  1   3  2  1   -0.0350     300AD*
   C    1.448072  1  121.364004  1    3.677341  1   4  3  2   -0.2434     300AE*
   C    1.344450  1  121.023942  1    0.937194  1   5  4  3   -0.0578     300AF*
   C    1.487797  1  122.566347  1  353.364816  1   6  5  4   -0.2761     300AG*
   H    1.087678  1  115.527667  1  353.079768  1   3  2  1    0.1762     300AH*
   H    1.091581  1  121.503567  1  182.306444  1   4  3  2    0.1480     300AI*
   H    1.087733  1  117.204708  1  179.143255  1   5  4  3    0.1581     300AJ*
   C    1.539023  1  110.646260  1  139.989924  1   7  6  5   -0.2595     300AK*
   H    1.151310  1  103.535488  1  255.463641  1   7  6  5    0.2543     300AL*
   C    1.496492  1  114.866407  1  181.898510  1  11  7  6   -0.1150     300AM*
   H    1.113403  1  108.106062  1   58.341444  1  11  7  6    0.1575     300AN*
   H    1.112913  1  109.167619  1  303.813246  1  11  7  6    0.1545     300AO*
   C    1.333149  1  123.256743  1  231.631274  1  13 11  7   -0.3400     300AP*
   H    1.092855  1  115.229177  1   54.062330  1  13 11  7    0.1642     300AQ*
   H    1.078014  1  124.200332  1    2.556817  1  16 13 11    0.1453     300AR*
   H    1.078674  1  123.132829  1  182.253351  1  16 13 11    0.1437     300AS*
   O    1.780538  1  151.863353  1  243.677840  1  12  7  6   -0.5281     300AT*
   C    1.216296  1  109.959798  1  280.365278  1  20 12  7    0.5081     300AU*
   C    1.466244  1  119.319162  1  136.955120  1  21 20 12   -0.3084     300AV*
   C    1.344162  1  121.090831  1  188.051942  1  22 21 20   -0.0354     300AW*
   C    1.447874  1  121.383445  1  356.121622  1  23 22 21   -0.2444     300AX*
   C    1.344684  1  120.970588  1  359.391344  1  24 23 22   -0.0571     300AY*
   C    1.487530  1  122.503970  1    7.035043  1  25 24 23   -0.2773     300B@*
   H    1.087713  1  115.525362  1    6.744085  1  22 21 20    0.1761     300BA*
   H    1.091552  1  121.483580  1  177.606412  1  23 22 21    0.1478     300BB*
   H    1.087614  1  117.238548  1  181.303979  1  24 23 22    0.1581     300BC*
   H    1.090802  1  121.955014  1  183.383974  1  25 24 23    0.1536     300BD*
   C    1.538841  1  110.748777  1  218.131785  1  26 25 24   -0.2597     300BE*
   H    1.769618  1  110.526500  1  221.580597  1   1  2  3    0.2558     300BF*
   C    1.496503  1  115.087097  1  177.233674  1  31 26 25   -0.1137     300BG*
   H    1.113044  1  109.129395  1   55.318873  1  31 26 25    0.1546     300BH*
   H    1.113565  1  108.029430  1  300.842316  1  31 26 25    0.1577     300BI*
   C    1.333276  1  123.258836  1  129.662964  1  33 31 26   -0.3420     300BJ*
   H    1.092928  1  115.256444  1  307.122621  1  33 31 26    0.1649     300BK*
   H    1.077903  1  124.199942  1  357.369209  1  36 33 31    0.1451     300BL*
   H    1.078638  1  123.128224  1  177.644886  1  36 33 31    0.1437     300BM*
   H    1.090877  1  121.966764  1  176.802870  1   6  5  4    0.1537     300BN*


     POINT   POTENTIAL  +  ENERGY LOST   =   TOTAL      ERROR    REF%   MOVEMENT
     301       1.92315     15.45100         17.37416  -0.50722   301   %  3.6060
     302       1.87342     15.50093         17.37435  -0.50702   302   %  3.6277
     303       1.82385     15.55070         17.37455  -0.50682   303   %  3.6495
     304       1.77445     15.60029         17.37475  -0.50663   304   %  3.6714
     305       1.72521     15.64973         17.37494  -0.50643   305   %  3.6934
     306       1.67614     15.69900         17.37514  -0.50623   306   %  3.7154
     307       1.62723     15.74810         17.37534  -0.50604   307   %  3.7376
     308       1.57849     15.79704         17.37553  -0.50584   308   %  3.7598
     309       1.52991     15.84582         17.37573  -0.50564   309   %  3.7821
     310       1.48150     15.89443         17.37592  -0.50545   310   %  3.8045
     311       1.43325     15.94287         17.37612  -0.50525   311   %  3.8270
     312       1.38516     15.99116         17.37632  -0.50505   312   %  3.8496
     313       1.33724     16.03927         17.37651  -0.50486   313   %  3.8722
     314       1.28949     16.08722         17.37671  -0.50466   314   %  3.8950
     315       1.24190     16.13501         17.37691  -0.50446   315   %  3.9178
     316       1.19447     16.18263         17.37710  -0.50427   316   %  3.9407
     317       1.14721     16.23009         17.37730  -0.50407   317   %  3.9637
     318       1.10011     16.27738         17.37750  -0.50388   318   %  3.9868
     319       1.05318     16.32451         17.37769  -0.50368   319   %  4.0100
     320       1.00642     16.37147         17.37789  -0.50348   320   %  4.0333
     321       0.95981     16.41827         17.37809  -0.50329   321   %  4.0567
     322       0.91338     16.46490         17.37828  -0.50309   322   %  4.0801
     323       0.86710     16.51137         17.37848  -0.50289   323   %  4.1037
     324       0.82100     16.55768         17.37867  -0.50270   324   %  4.1273
     325       0.77505     16.60382         17.37887  -0.50250   325   %  4.1511
     326       0.72927     16.64979         17.37907  -0.50230   326   %  4.1749
     327       0.68366     16.69561         17.37926  -0.50211   327   %  4.1989
     328       0.63821     16.74125         17.37946  -0.50191   328   %  4.2229
     329       0.59292     16.78673         17.37966  -0.50172   329   %  4.2470
     330       0.54780     16.83205         17.37985  -0.50152   330   %  4.2713
     331       0.50284     16.87721         17.38005  -0.50132   331   %  4.2956
     332       0.45805     16.92219         17.38024  -0.50113   332   %  4.3200
     333       0.41342     16.96702         17.38044  -0.50093   333   %  4.3446
     334       0.36896     17.01168         17.38064  -0.50073   334   %  4.3692
     335       0.32466     17.05618         17.38083  -0.50054   335   %  4.3939
     336       0.28052     17.10051         17.38103  -0.50034   336   %  4.4188
     337       0.23655     17.14468         17.38123  -0.50015   337   %  4.4437
     338       0.19274     17.18869         17.38142  -0.49995   338   %  4.4688
     339       0.14909     17.23252         17.38162  -0.49975   339   %  4.4939
     340       0.10561     17.27620         17.38181  -0.49956   340   %  4.5192
     341       0.06230     17.31971         17.38201  -0.49936   341   %  4.5446
     342       0.01914     17.36307         17.38221  -0.49917   342   %  4.5701
     343      -0.02384     17.40625         17.38240  -0.49897   343   %  4.5957
     344      -0.06668     17.44928         17.38260  -0.49877   344   %  4.6214
     345      -0.10931     17.49211         17.38279  -0.49858   345   %  4.6472
     346      -0.15183     17.53482         17.38299  -0.49838   346   %  4.6731
     347      -0.19400     17.57719         17.38319  -0.49818   347   %  4.6991
     348      -0.23604     17.61943         17.38339  -0.49798   348   %  4.7250
     349      -0.27689     17.66049         17.38360  -0.49777   349   %  4.7508
     350      -0.31618     17.70005         17.38388  -0.49750   350   %  4.7752
     351      -0.34944     17.73363         17.38419  -0.49718   351   %  4.7968
     352      -0.37568     17.76019         17.38451  -0.49686   352   %  4.8131
     353      -0.39622     17.78087         17.38465  -0.49672   353   %  4.8266
     354      -0.42037     17.80512         17.38475  -0.49662   354   %  4.8419
     355      -0.45422     17.83912         17.38490  -0.49647   355   %  4.8641
     356      -0.49291     17.87810         17.38519  -0.49618   356   %  4.8891
     357      -0.52472     17.91029         17.38558  -0.49579   357   %  4.9106
     358      -0.54733     17.93326         17.38593  -0.49544   358   %  4.9250
     359      -0.56422     17.95025         17.38603  -0.49534   359   %  4.9365
     360      -0.58786     17.97396         17.38610  -0.49527   360   %  4.9521
     361      -0.62101     18.00724         17.38623  -0.49514   361   %  4.9745
     362      -0.66160     18.04809         17.38649  -0.49488   362   %  5.0017
     363      -0.69673     18.08362         17.38689  -0.49448   363   %  5.0263
     364      -0.72134     18.10875         17.38741  -0.49397   364   %  5.0425
     365      -0.73662     18.12421         17.38758  -0.49379   365   %  5.0534
     366      -0.75272     18.14034         17.38762  -0.49375   366   %  5.0644
     367      -0.77534     18.16301         17.38767  -0.49370   367   %  5.0802
     368      -0.80704     18.19483         17.38779  -0.49359   368   %  5.1023
     369      -0.84851     18.23651         17.38799  -0.49338   369   %  5.1317
     370      -0.88848     18.27677         17.38829  -0.49308   370   %  5.1598
     371      -0.92082     18.30959         17.38877  -0.49260   371   %  5.1838
     372      -0.94144     18.33077         17.38934  -0.49204   372   %  5.1978
     373      -0.95374     18.34320         17.38946  -0.49191   373   %  5.2070
     374      -0.96913     18.35862         17.38948  -0.49189   374   %  5.2181
     375      -0.99077     18.38031         17.38954  -0.49184   375   %  5.2339
     376      -1.02110     18.41075         17.38964  -0.49173   376   %  5.2562
     377      -1.06230     18.45215         17.38984  -0.49153   377   %  5.2867
     378      -1.10249     18.49257         17.39008  -0.49129   378   %  5.3166
     379      -1.13855     18.52898         17.39043  -0.49094   379   %  5.3443
     380      -1.16555     18.55669         17.39114  -0.49023   380   %  5.3640
     381      -1.18002     18.57162         17.39160  -0.48977   381   %  5.3756
     382      -1.18941     18.58105         17.39164  -0.48973   382   %  5.3826
     383      -1.20260     18.59426         17.39165  -0.48972   383   %  5.3927
     384      -1.22115     18.61284         17.39169  -0.48968   384   %  5.4070
     385      -1.24717     18.63894         17.39177  -0.48960   385   %  5.4271
     386      -1.28355     18.67549         17.39194  -0.48944   386   %  5.4556
     387      -1.32333     18.71548         17.39215  -0.48922   387   %  5.4868
     388      -1.36105     18.75344         17.39239  -0.48898   388   %  5.5171
     389      -1.39480     18.78767         17.39287  -0.48850   389   %  5.5436
     390      -1.41622     18.81002         17.39380  -0.48758   390   %  5.5620
     391      -1.42644     18.82057         17.39413  -0.48724   391   %  5.5695
     392      -1.43407     18.82821         17.39414  -0.48723   392   %  5.5757
     393      -1.44482     18.83898         17.39415  -0.48722   393   %  5.5845
     394      -1.45996     18.85414         17.39418  -0.48719   394   %  5.5968
     395      -1.48122     18.87545         17.39423  -0.48714   395   %  5.6143
     396      -1.51099     18.90533         17.39435  -0.48703   396   %  5.6389
     397      -1.55011     18.94466         17.39455  -0.48682   397   %  5.6715
     398      -1.58827     18.98303         17.39476  -0.48661   398   %  5.7036
     399      -1.62458     19.01956         17.39497  -0.48640   399   %  5.7347
     400      -1.65920     19.05452         17.39532  -0.48605   400   %  5.7641


          FINAL GEOMETRY OBTAINED                                 CHARGE
 PM7 CHARGE=0 IRC=-1 LARGE=100 LET CYCLES=10000
 (irc)

   O    0.000000  0    0.000000  0    0.000000  0   0  0  0   -0.5167     400AA*
   C    1.214360  1    0.000000  0    0.000000  0   1  0  0    0.5019     400AB*
   C    1.468665  1  119.791120  1    0.000000  0   2  1  0   -0.3057     400AC*
   C    1.343789  1  121.276885  1  176.197411  1   3  2  1   -0.0382     400AD*
   C    1.448916  1  121.207622  1    2.606059  1   4  3  2   -0.2372     400AE*
   C    1.343923  1  121.094694  1  359.063705  1   5  4  3   -0.0637     400AF*
   C    1.490254  1  122.907333  1  355.711017  1   6  5  4   -0.2637     400AG*
   H    1.087695  1  115.398787  1  356.936846  1   3  2  1    0.1758     400AH*
   H    1.091370  1  121.622428  1  181.594958  1   4  3  2    0.1483     400AI*
   H    1.087939  1  117.167063  1  178.002862  1   5  4  3    0.1581     400AJ*
   C    1.540895  1  109.949825  1  137.181086  1   7  6  5   -0.2621     400AK*
   H    1.144297  1  105.124754  1  253.097906  1   7  6  5    0.2389     400AL*
   C    1.496351  1  114.425499  1  179.441953  1  11  7  6   -0.1154     400AM*
   H    1.112790  1  108.282599  1   55.945000  1  11  7  6    0.1559     400AN*
   H    1.112608  1  109.231736  1  301.329699  1  11  7  6    0.1552     400AO*
   C    1.332887  1  123.268151  1  233.913375  1  13 11  7   -0.3405     400AP*
   H    1.093227  1  115.250639  1   56.268674  1  13 11  7    0.1670     400AQ*
   H    1.077818  1  124.238588  1    2.401034  1  16 13 11    0.1451     400AR*
   H    1.078605  1  123.105366  1  182.152092  1  16 13 11    0.1439     400AS*
   O    1.933383  1  155.698971  1  250.922694  1  12  7  6   -0.5165     400AT*
   C    1.214277  1  105.353992  1  277.062925  1  20 12  7    0.5017     400AU*
   C    1.468856  1  119.807999  1  134.540525  1  21 20 12   -0.3057     400AV*
   C    1.343832  1  121.306115  1  183.466179  1  22 21 20   -0.0387     400AW*
   C    1.448799  1  121.214812  1  357.262293  1  23 22 21   -0.2378     400AX*
   C    1.344081  1  121.052605  1    1.287191  1  24 23 22   -0.0633     400AY*
   C    1.490199  1  122.870279  1    4.555915  1  25 24 23   -0.2646     400B@*
   H    1.087822  1  115.399283  1    2.756386  1  22 21 20    0.1757     400BA*
   H    1.091324  1  121.612293  1  178.361046  1  23 22 21    0.1483     400BB*
   H    1.087717  1  117.192866  1  182.429131  1  24 23 22    0.1580     400BC*
   H    1.090919  1  121.821543  1  181.803798  1  25 24 23    0.1537     400BD*
   C    1.540746  1  110.004629  1  221.303869  1  26 25 24   -0.2623     400BE*
   H    1.920420  1  105.955131  1  224.355271  1   1  2  3    0.2400     400BF*
   C    1.496349  1  114.628829  1  179.715598  1  31 26 25   -0.1144     400BG*
   H    1.112744  1  109.191831  1   57.830014  1  31 26 25    0.1552     400BH*
   H    1.112935  1  108.211578  1  303.268073  1  31 26 25    0.1560     400BI*
   C    1.332950  1  123.271988  1  127.018747  1  33 31 26   -0.3421     400BJ*
   H    1.093257  1  115.270717  1  304.556496  1  33 31 26    0.1675     400BK*
   H    1.078187  1  124.236400  1  357.513594  1  36 33 31    0.1449     400BL*
   H    1.079031  1  123.105555  1  177.742958  1  36 33 31    0.1439     400BM*
   H    1.091006  1  121.836887  1  178.312938  1   6  5  4    0.1537     400BN*


     POINT   POTENTIAL  +  ENERGY LOST   =   TOTAL      ERROR    REF%   MOVEMENT
     401      -1.68494     19.08127         17.39634  -0.48504   401   %  5.7875
     402      -1.69673     19.09392         17.39719  -0.48419   402   %  5.7966
     403      -1.70231     19.09953         17.39722  -0.48415   403   %  5.8016
     404      -1.71011     19.10734         17.39723  -0.48414   404   %  5.8085
     405      -1.72108     19.11832         17.39724  -0.48413   405   %  5.8181
     406      -1.73652     19.13379         17.39727  -0.48410   406   %  5.8316
     407      -1.75819     19.15552         17.39733  -0.48404   407   %  5.8508
     408      -1.78851     19.18597         17.39746  -0.48391   408   %  5.8777
     409      -1.82624     19.22390         17.39766  -0.48371   409   %  5.9116
     410      -1.86284     19.26072         17.39789  -0.48349   410   %  5.9447
     411      -1.89703     19.29524         17.39821  -0.48316   411   %  5.9765
     412      -1.92300     19.32240         17.39941  -0.48196   412   %  5.9999
     413      -1.93413     19.33472         17.40059  -0.48078   413   %  6.0109
     414      -1.93860     19.33923         17.40063  -0.48074   414   %  6.0147
     415      -1.94479     19.34544         17.40065  -0.48072   415   %  6.0204
     416      -1.95350     19.35416         17.40066  -0.48071   416   %  6.0285
     417      -1.96577     19.36644         17.40068  -0.48070   417   %  6.0400
     418      -1.98300     19.38371         17.40072  -0.48066   418   %  6.0562
     419      -2.00715     19.40795         17.40080  -0.48057   419   %  6.0791
     420      -2.04089     19.44186         17.40097  -0.48040   420   %  6.1112
     421      -2.07694     19.47815         17.40121  -0.48016   421   %  6.1462
     422      -2.10891     19.51081         17.40189  -0.47948   422   %  6.1770
     423      -2.12568     19.52967         17.40399  -0.47738   423   %  6.1951
     424      -2.13168     19.53615         17.40447  -0.47690   424   %  6.1997
     425      -2.13509     19.53957         17.40448  -0.47689   425   %  6.2029
     426      -2.13987     19.54436         17.40449  -0.47688   426   %  6.2076
     427      -2.14661     19.55111         17.40449  -0.47688   427   %  6.2142
     428      -2.15611     19.56062         17.40450  -0.47687   428   %  6.2236
     429      -2.16948     19.57401         17.40453  -0.47684   429   %  6.2369
     430      -2.18825     19.59283         17.40458  -0.47679   430   %  6.2557
     431      -2.21452     19.61921         17.40468  -0.47669   431   %  6.2821
     432      -2.25039     19.65528         17.40489  -0.47648   432   %  6.3185
     433      -2.28545     19.69055         17.40510  -0.47627   433   %  6.3545
     434      -2.31868     19.72400         17.40532  -0.47605   434   %  6.3891
     435      -2.34949     19.75540         17.40591  -0.47547   435   %  6.4213
     436      -2.36658     19.77500         17.40842  -0.47295   436   %  6.4410
     437      -2.37266     19.78188         17.40922  -0.47215   437   %  6.4458
     438      -2.37518     19.78441         17.40922  -0.47215   438   %  6.4484
     439      -2.37872     19.78795         17.40922  -0.47215   439   %  6.4522
     440      -2.38371     19.79293         17.40922  -0.47215   440   %  6.4574
     441      -2.39074     19.79997         17.40923  -0.47214   441   %  6.4649
     442      -2.40065     19.80990         17.40924  -0.47213   442   %  6.4755
     443      -2.41459     19.82386         17.40927  -0.47210   443   %  6.4904
     444      -2.43414     19.84348         17.40933  -0.47204   444   %  6.5115
     445      -2.46149     19.87094         17.40945  -0.47192   445   %  6.5412
     446      -2.49597     19.90563         17.40966  -0.47171   446   %  6.5791
     447      -2.52907     19.93904         17.40997  -0.47140   447   %  6.6157
     448      -2.55432     19.96615         17.41183  -0.46954   448   %  6.6457
     449      -2.56353     19.97815         17.41462  -0.46675   449   %  6.6545
     450      -2.56606     19.98076         17.41470  -0.46668   450   %  6.6572
     451      -2.56937     19.98411         17.41474  -0.46663   451   %  6.6609
     452      -2.57391     19.98867         17.41476  -0.46661   452   %  6.6661
     453      -2.58028     19.99504         17.41477  -0.46660   453   %  6.6733
     454      -2.58925     20.00403         17.41478  -0.46659   454   %  6.6835
     455      -2.60188     20.01668         17.41480  -0.46657   455   %  6.6978
     456      -2.61960     20.03445         17.41486  -0.46652   456   %  6.7181
     457      -2.64439     20.05935         17.41496  -0.46641   457   %  6.7467
     458      -2.67756     20.09279         17.41523  -0.46614   458   %  6.7853
     459      -2.70457     20.12169         17.41711  -0.46426   459   %  6.8191
     460      -2.71394     20.13507         17.42113  -0.46024   460   %  6.8288
     461      -2.71651     20.13778         17.42128  -0.46009   461   %  6.8314
     462      -2.71907     20.14041         17.42135  -0.46002   462   %  6.8343
     463      -2.72245     20.14383         17.42139  -0.45999   463   %  6.8383
     464      -2.72713     20.14853         17.42140  -0.45998   464   %  6.8439
     465      -2.73373     20.15513         17.42140  -0.45997   465   %  6.8518
     466      -2.74301     20.16443         17.42142  -0.45996   466   %  6.8629
     467      -2.75607     20.17751         17.42144  -0.45993   467   %  6.8785
     468      -2.77439     20.19589         17.42150  -0.45987   468   %  6.9006
     469      -2.79999     20.22162         17.42162  -0.45975   469   %  6.9318
     470      -2.83262     20.25446         17.42185  -0.45953   470   %  6.9718
     471      -2.86221     20.28504         17.42283  -0.45854   471   %  7.0098
     472      -2.87386     20.30189         17.42803  -0.45334   472   %  7.0254
     473      -2.87836     20.30719         17.42883  -0.45255   473   %  7.0291
     474      -2.87986     20.30872         17.42886  -0.45251   474   %  7.0308
     475      -2.88182     20.31072         17.42890  -0.45248   475   %  7.0332
     476      -2.88447     20.31339         17.42892  -0.45245   476   %  7.0365
     477      -2.88815     20.31708         17.42893  -0.45244   477   %  7.0412
     478      -2.89332     20.32224         17.42893  -0.45244   478   %  7.0477
     479      -2.90061     20.32954         17.42894  -0.45244   479   %  7.0569
     480      -2.91087     20.33982         17.42895  -0.45242   480   %  7.0699
     481      -2.92528     20.35427         17.42899  -0.45238   481   %  7.0883
     482      -2.94548     20.37454         17.42907  -0.45230   482   %  7.1142
     483      -2.97364     20.40289         17.42924  -0.45213   483   %  7.1506
     484      -3.00259     20.43287         17.43027  -0.45110   484   %  7.1895
     485      -3.01320     20.44964         17.43644  -0.44493   485   %  7.2055
     486      -3.01780     20.45515         17.43735  -0.44402   486   %  7.2089
     487      -3.01912     20.45651         17.43739  -0.44398   487   %  7.2104
     488      -3.02081     20.45824         17.43743  -0.44394   488   %  7.2125
     489      -3.02304     20.46050         17.43746  -0.44391   489   %  7.2154
     490      -3.02609     20.46357         17.43748  -0.44389   490   %  7.2194
     491      -3.03036     20.46784         17.43748  -0.44389   491   %  7.2251
     492      -3.03636     20.47384         17.43748  -0.44389   492   %  7.2330
     493      -3.04484     20.48233         17.43749  -0.44388   493   %  7.2443
     494      -3.05675     20.49427         17.43752  -0.44385   494   %  7.2602
     495      -3.07347     20.51104         17.43757  -0.44380   495   %  7.2827
     496      -3.09684     20.53452         17.43769  -0.44369   496   %  7.3143
     497      -3.12734     20.56541         17.43806  -0.44331   497   %  7.3566
     498      -3.14620     20.58896         17.44276  -0.43861   498   %  7.3852
     499      -3.15366     20.60086         17.44720  -0.43417   499   %  7.3929
     500      -3.15466     20.60186         17.44721  -0.43416   500   %  7.3942


          FINAL GEOMETRY OBTAINED                                 CHARGE
 PM7 CHARGE=0 IRC=-1 LARGE=100 LET CYCLES=10000
 (irc)

   O    0.000000  0    0.000000  0    0.000000  0   0  0  0   -0.5102     500AA*
   C    1.213415  1    0.000000  0    0.000000  0   1  0  0    0.4983     500AB*
   C    1.469602  1  120.051072  1    0.000000  0   2  1  0   -0.3047     500AC*
   C    1.343657  1  121.337933  1  178.416534  1   3  2  1   -0.0399     500AD*
   C    1.449326  1  121.170739  1    1.695927  1   4  3  2   -0.2344     500AE*
   C    1.343674  1  121.121350  1  358.621456  1   5  4  3   -0.0664     500AF*
   C    1.491089  1  123.036977  1  357.017790  1   6  5  4   -0.2582     500AG*
   H    1.087858  1  115.366675  1  358.769266  1   3  2  1    0.1757     500AH*
   H    1.091376  1  121.661408  1  180.991958  1   4  3  2    0.1485     500AI*
   H    1.088095  1  117.150537  1  177.989743  1   5  4  3    0.1581     500AJ*
   C    1.541648  1  109.705581  1  134.767032  1   7  6  5   -0.2629     500AK*
   H    1.141311  1  105.827959  1  251.041831  1   7  6  5    0.2312     500AL*
   C    1.496406  1  113.909007  1  176.739183  1  11  7  6   -0.1156     500AM*
   H    1.112295  1  108.483965  1   53.346068  1  11  7  6    0.1550     500AN*
   H    1.112257  1  109.303572  1  298.607896  1  11  7  6    0.1553     500AO*
   C    1.332659  1  123.247345  1  236.336057  1  13 11  7   -0.3404     500AP*
   H    1.093323  1  115.225834  1   58.436719  1  13 11  7    0.1680     500AQ*
   H    1.078103  1  124.242188  1    2.163223  1  16 13 11    0.1451     500AR*
   H    1.078882  1  123.111553  1  181.939077  1  16 13 11    0.1440     500AS*
   O    2.029542  1  158.101141  1  256.866765  1  12  7  6   -0.5099     500AT*
   C    1.213323  1  102.685127  1  272.938341  1  20 12  7    0.4981     500AU*
   C    1.469764  1  120.049715  1  133.654077  1  21 20 12   -0.3046     500AV*
   C    1.343666  1  121.358195  1  181.191592  1  22 21 20   -0.0403     500AW*
   C    1.449237  1  121.172184  1  358.234735  1  23 22 21   -0.2349     500AX*
   C    1.343798  1  121.089117  1    1.699398  1  24 23 22   -0.0661     500AY*
   C    1.491121  1  123.017639  1    3.162133  1  25 24 23   -0.2587     500B@*
   H    1.087903  1  115.369703  1    0.881814  1  22 21 20    0.1757     500BA*
   H    1.091328  1  121.655643  1  178.999980  1  23 22 21    0.1485     500BB*
   H    1.088018  1  117.170697  1  182.384197  1  24 23 22    0.1580     500BC*
   H    1.091044  1  121.786567  1  180.916103  1  25 24 23    0.1538     500BD*
   C    1.541545  1  109.739964  1  224.003635  1  26 25 24   -0.2630     500BE*
   H    2.016757  1  103.236006  1  225.487691  1   1  2  3    0.2320     500BF*
   C    1.496419  1  114.079906  1  182.518742  1  31 26 25   -0.1148     500BG*
   H    1.112341  1  109.264146  1   60.654564  1  31 26 25    0.1554     500BH*
   H    1.112363  1  108.425239  1  305.964606  1  31 26 25    0.1550     500BI*
   C    1.332774  1  123.263915  1  124.298348  1  33 31 26   -0.3416     500BJ*
   H    1.093431  1  115.233106  1  302.104144  1  33 31 26    0.1684     500BK*
   H    1.077611  1  124.235545  1  357.759844  1  36 33 31    0.1449     500BL*
   H    1.078453  1  123.108499  1  177.967753  1  36 33 31    0.1440     500BM*
   H    1.091106  1  121.805331  1  179.152943  1   6  5  4    0.1539     500BN*


     POINT   POTENTIAL  +  ENERGY LOST   =   TOTAL      ERROR    REF%   MOVEMENT
     501      -3.15602     20.60324         17.44722  -0.43416   501   %  7.3960
     502      -3.15792     20.60515         17.44722  -0.43415   502   %  7.3985
     503      -3.16058     20.60781         17.44722  -0.43415   503   %  7.4022
     504      -3.16433     20.61155         17.44722  -0.43415   504   %  7.4074
     505      -3.16961     20.61683         17.44722  -0.43415   505   %  7.4148
     506      -3.17706     20.62429         17.44723  -0.43414   506   %  7.4252
     507      -3.18754     20.63478         17.44725  -0.43412   507   %  7.4399
     508      -3.20224     20.64954         17.44729  -0.43408   508   %  7.4607
     509      -3.22283     20.67021         17.44738  -0.43399   509   %  7.4900
     510      -3.25152     20.69908         17.44756  -0.43381   510   %  7.5313
     511      -3.28078     20.72881         17.44803  -0.43334   511   %  7.5736
     512      -3.29636     20.74986         17.45349  -0.42788   512   %  7.6031
     513      -3.30343     20.76050         17.45707  -0.42430   513   %  7.6072
     514      -3.30428     20.76135         17.45707  -0.42430   514   %  7.6084
     515      -3.30547     20.76254         17.45707  -0.42430   515   %  7.6101
     516      -3.30716     20.76423         17.45707  -0.42430   516   %  7.6125
     517      -3.30954     20.76660         17.45707  -0.42430   517   %  7.6160
     518      -3.31289     20.76996         17.45707  -0.42430   518   %  7.6209
     519      -3.31762     20.77468         17.45706  -0.42431   519   %  7.6279
     520      -3.32429     20.78136         17.45707  -0.42430   520   %  7.6378
     521      -3.33368     20.79077         17.45709  -0.42428   521   %  7.6517
     522      -3.34686     20.80399         17.45713  -0.42425   522   %  7.6715
     523      -3.36533     20.82253         17.45720  -0.42417   523   %  7.6993
     524      -3.39108     20.84844         17.45736  -0.42402   524   %  7.7385
     525      -3.41967     20.87742         17.45776  -0.42362   525   %  7.7820
     526      -3.43647     20.89915         17.46269  -0.41868   526   %  7.8163
     527      -3.44362     20.91058         17.46696  -0.41441   527   %  7.8194
     528      -3.44451     20.91147         17.46696  -0.41441   528   %  7.8208
     529      -3.44573     20.91270         17.46696  -0.41441   529   %  7.8227
[...]
    2661      -5.40921     26.16412         20.75492   2.87354  2661   % 15.0469
    2662      -5.40925     26.16417         20.75492   2.87354  2662   % 15.0476
    2663      -5.40932     26.16423         20.75492   2.87354  2663   % 15.0485
    2664      -5.40941     26.16432         20.75492   2.87354  2664   % 15.0497
    2665      -5.40953     26.16445         20.75492   2.87354  2665   % 15.0516
    2666      -5.40964     26.16465         20.75501   2.87364  2666   % 15.0537
    2667      -5.40205     26.16653         20.76448   2.88311  2667   % 15.0608
    2668      -5.40617     26.19337         20.78720   2.90583  2668   % 15.0561
    2669      -5.40730     26.19460         20.78729   2.90592  2669   % 15.0564
    2670      -5.40839     26.19582         20.78743   2.90606  2670   % 15.0569
    2671      -5.40916     26.19671         20.78755   2.90618  2671   % 15.0573
    2672      -5.40967     26.19732         20.78765   2.90628  2672   % 15.0578
    2673      -5.40994     26.19768         20.78773   2.90636  2673   % 15.0583
    2674      -5.41004     26.19782         20.78778   2.90640  2674   % 15.0587
    2675      -5.41007     26.19786         20.78778   2.90641  2675   % 15.0591
    2676      -5.41010     26.19789         20.78778   2.90641  2676   % 15.0595
    2677      -5.41015     26.19793         20.78778   2.90641  2677   % 15.0601
    2678      -5.41021     26.19799         20.78778   2.90641  2678   % 15.0610
    2679      -5.41029     26.19807         20.78778   2.90641  2679   % 15.0622
    2680      -5.41041     26.19819         20.78778   2.90641  2680   % 15.0639
    2681      -5.41057     26.19836         20.78779   2.90642  2681   % 15.0661
    2682      -5.41040     26.19869         20.78829   2.90692  2682   % 15.0703
    2683      -5.39566     26.20482         20.80915   2.92778  2683   % 15.0671
    2684      -5.40940     26.22555         20.81615   2.93478  2684   % 15.0704
    2685      -5.40974     26.22591         20.81617   2.93480  2685   % 15.0706
    2686      -5.41011     26.22631         20.81620   2.93483  2686   % 15.0708
    2687      -5.41047     26.22670         20.81624   2.93487  2687   % 15.0711
    2688      -5.41075     26.22704         20.81629   2.93491  2688   % 15.0715
    2689      -5.41093     26.22726         20.81633   2.93496  2689   % 15.0719
    2690      -5.41101     26.22736         20.81635   2.93498  2690   % 15.0723
    2691      -5.41104     26.22740         20.81636   2.93499  2691   % 15.0727
    2692      -5.41107     26.22743         20.81636   2.93499  2692   % 15.0731
    2693      -5.41111     26.22746         20.81636   2.93499  2693   % 15.0737
    2694      -5.41116     26.22752         20.81636   2.93499  2694   % 15.0745
    2695      -5.41124     26.22760         20.81636   2.93499  2695   % 15.0756
    2696      -5.41135     26.22771         20.81636   2.93499  2696   % 15.0772
    2697      -5.41146     26.22788         20.81642   2.93505  2697   % 15.0791
    2698      -5.40812     26.22896         20.82084   2.93947  2698   % 15.0849
    2699      -5.40641     26.24508         20.83867   2.95730  2699   % 15.0803
    2700      -5.40863     26.24757         20.83895   2.95758  2700   % 15.0811


          FINAL GEOMETRY OBTAINED                                 CHARGE
 PM7 CHARGE=0 IRC=-1 LARGE=100 LET CYCLES=10000
 (irc)

   O    0.000000  0    0.000000  0    0.000000  0   0  0  0   -0.4959    2700AA*
   C    1.211805  1    0.000000  0    0.000000  0   1  0  0    0.4904    2700AB*
   C    1.470466  1  120.899265  1    0.000000  0   2  1  0   -0.3057    2700AC*
   C    1.343764  1  121.310140  1  175.731564  1   3  2  1   -0.0420    2700AD*
   C    1.450215  1  121.280776  1    1.052005  1   4  3  2   -0.2315    2700AE*
   C    1.343254  1  121.117829  1    1.357865  1   5  4  3   -0.0700    2700AF*
   C    1.490526  1  123.099104  1  358.390641  1   6  5  4   -0.2498    2700AG*
   H    1.087793  1  115.433490  1  356.264856  1   3  2  1    0.1755    2700AH*
   H    1.091451  1  121.642390  1  180.779655  1   4  3  2    0.1484    2700AI*
   H    1.088053  1  117.136150  1  181.011882  1   5  4  3    0.1580    2700AJ*
   C    1.543665  1  109.866202  1  123.938207  1   7  6  5   -0.2609    2700AK*
   H    1.135992  1  106.981016  1  241.255534  1   7  6  5    0.2174    2700AL*
   C    1.496758  1  111.359330  1  163.755095  1  11  7  6   -0.1173    2700AM*
   H    1.110491  1  109.312502  1   40.974247  1  11  7  6    0.1539    2700AN*
   H    1.110853  1  109.851571  1  285.616826  1  11  7  6    0.1545    2700AO*
   C    1.332151  1  122.952331  1  243.660970  1  13 11  7   -0.3351    2700AP*
   H    1.093119  1  114.953348  1   64.013222  1  13 11  7    0.1650    2700AQ*
   H    1.078478  1  124.117673  1    0.822940  1  16 13 11    0.1463    2700AR*
   H    1.078467  1  123.267647  1  180.578705  1  16 13 11    0.1436    2700AS*
   O    2.247728  1  161.530427  1  279.143336  1  12  7  6   -0.4957    2700AT*
   C    1.211789  1  100.987678  1  249.122970  1  20 12  7    0.4903    2700AU*
   C    1.470388  1  120.898115  1  138.793160  1  21 20 12   -0.3057    2700AV*
   C    1.343739  1  121.318674  1  184.097880  1  22 21 20   -0.0421    2700AW*
   C    1.450152  1  121.285978  1  358.982042  1  23 22 21   -0.2313    2700AX*
   C    1.343301  1  121.110688  1  358.706409  1  24 23 22   -0.0701    2700AY*
   C    1.490572  1  123.101701  1    1.604160  1  25 24 23   -0.2497    2700B@*
   H    1.087971  1  115.443039  1    3.585510  1  22 21 20    0.1755    2700BA*
   H    1.091515  1  121.635837  1  179.244496  1  23 22 21    0.1484    2700BB*
   H    1.088651  1  117.141549  1  179.051581  1  24 23 22    0.1580    2700BC*
   H    1.091281  1  121.917685  1  180.381371  1  25 24 23    0.1550    2700BD*
   C    1.543781  1  109.877161  1  235.902368  1  26 25 24   -0.2609    2700BE*
   H    2.248545  1  101.031209  1  221.202288  1   1  2  3    0.2175    2700BF*
   C    1.496872  1  111.348389  1  196.142657  1  31 26 25   -0.1171    2700BG*
   H    1.108856  1  109.831754  1   74.288724  1  31 26 25    0.1544    2700BH*
   H    1.109753  1  109.308856  1  318.937174  1  31 26 25    0.1538    2700BI*
   C    1.332270  1  122.951895  1  115.902693  1  33 31 26   -0.3352    2700BJ*
   H    1.091193  1  114.940807  1  295.575415  1  33 31 26    0.1649    2700BK*
   H    1.077154  1  124.113074  1  359.201043  1  36 33 31    0.1462    2700BL*
   H    1.080022  1  123.266225  1  179.435746  1  36 33 31    0.1438    2700BM*
   H    1.091532  1  121.931678  1  179.603839  1   6  5  4    0.1550    2700BN*


     POINT   POTENTIAL  +  ENERGY LOST   =   TOTAL      ERROR    REF%   MOVEMENT
    2701      -5.40975     26.24881         20.83906   2.95769  2701   % 15.0815
    2702      -5.41067     26.24987         20.83919   2.95782  2702   % 15.0821
    2703      -5.41128     26.25058         20.83930   2.95793  2703   % 15.0826
    2704      -5.41164     26.25103         20.83939   2.95802  2704   % 15.0831
    2705      -5.41179     26.25124         20.83945   2.95807  2705   % 15.0836
    2706      -5.41183     26.25129         20.83946   2.95809  2706   % 15.0840
    2707      -5.41186     26.25132         20.83946   2.95809  2707   % 15.0844
    2708      -5.41190     26.25136         20.83946   2.95809  2708   % 15.0850
    2709      -5.41195     26.25141         20.83946   2.95809  2709   % 15.0857
    2710      -5.41203     26.25149         20.83946   2.95809  2710   % 15.0868
    2711      -5.41213     26.25159         20.83946   2.95809  2711   % 15.0883
    2712      -5.41219     26.25177         20.83958   2.95821  2712   % 15.0900
    2713      -5.40697     26.25349         20.84653   2.96516  2713   % 15.0961
    2714      -5.41080     26.27070         20.85990   2.97853  2714   % 15.0920
    2715      -5.41139     26.27134         20.85996   2.97858  2715   % 15.0923
    2716      -5.41191     26.27194         20.86003   2.97866  2716   % 15.0928
    2717      -5.41228     26.27239         20.86011   2.97874  2717   % 15.0932
    2718      -5.41248     26.27265         20.86017   2.97880  2718   % 15.0937
    2719      -5.41254     26.27274         20.86019   2.97882  2719   % 15.0941
    2720      -5.41257     26.27276         20.86020   2.97882  2720   % 15.0945
    2721      -5.41260     26.27280         20.86020   2.97882  2721   % 15.0950
    2722      -5.41264     26.27284         20.86020   2.97882  2722   % 15.0956
    2723      -5.41271     26.27290         20.86020   2.97883  2723   % 15.0965
    2724      -5.41280     26.27299         20.86020   2.97882  2724   % 15.0978
    2725      -5.41291     26.27312         20.86021   2.97884  2725   % 15.0995
    2726      -5.41270     26.27341         20.86071   2.97934  2726   % 15.1027
    2727      -5.40522     26.27790         20.87268   2.99131  2727   % 15.1009
    2728      -5.41252     26.28912         20.87660   2.99523  2728   % 15.1030
    2729      -5.41273     26.28934         20.87661   2.99524  2729   % 15.1032
    2730      -5.41293     26.28957         20.87664   2.99527  2730   % 15.1034
    2731      -5.41309     26.28976         20.87666   2.99529  2731   % 15.1037
    2732      -5.41320     26.28989         20.87669   2.99532  2732   % 15.1040
    2733      -5.41325     26.28996         20.87670   2.99533  2733   % 15.1043
    2734      -5.41328     26.28999         20.87671   2.99534  2734   % 15.1047
    2735      -5.41330     26.29001         20.87671   2.99534  2735   % 15.1050
    2736      -5.41334     26.29005         20.87671   2.99534  2736   % 15.1056
    2737      -5.41339     26.29010         20.87671   2.99534  2737   % 15.1063
    2738      -5.41346     26.29017         20.87671   2.99534  2738   % 15.1074
    2739      -5.41357     26.29028         20.87671   2.99534  2739   % 15.1089
    2740      -5.41368     26.29043         20.87675   2.99537  2740   % 15.1107
    2741      -5.41175     26.29116         20.87941   2.99804  2741   % 15.1154
    2742      -5.40698     26.30338         20.89640   3.01503  2742   % 15.1121
    2743      -5.41057     26.30759         20.89702   3.01565  2743   % 15.1129
    2744      -5.41164     26.30876         20.89712   3.01574  2744   % 15.1133
    2745      -5.41264     26.30989         20.89725   3.01588  2745   % 15.1137
    2746      -5.41333     26.31069         20.89736   3.01599  2746   % 15.1142
    2747      -5.41375     26.31121         20.89746   3.01609  2747   % 15.1146
    2748      -5.41396     26.31149         20.89753   3.01616  2748   % 15.1150
    2749      -5.41403     26.31158         20.89756   3.01619  2749   % 15.1154
    2750      -5.41405     26.31161         20.89756   3.01619  2750   % 15.1158
    2751      -5.41408     26.31164         20.89756   3.01619  2751   % 15.1163
    2752      -5.41413     26.31169         20.89756   3.01619  2752   % 15.1169
    2753      -5.41419     26.31175         20.89756   3.01619  2753   % 15.1178
    2754      -5.41428     26.31184         20.89756   3.01619  2754   % 15.1191
    2755      -5.41438     26.31197         20.89759   3.01622  2755   % 15.1208
    2756      -5.41313     26.31257         20.89944   3.01807  2756   % 15.1245
    2757      -5.40902     26.32127         20.91225   3.03088  2757   % 15.1225
    2758      -5.41241     26.32541         20.91300   3.03163  2758   % 15.1233
    2759      -5.41318     26.32627         20.91308   3.03171  2759   % 15.1235
    2760      -5.41387     26.32706         20.91319   3.03181  2760   % 15.1239
    2761      -5.41436     26.32765         20.91329   3.03192  2761   % 15.1242
    2762      -5.41460     26.32797         20.91337   3.03200  2762   % 15.1246
    2763      -5.41468     26.32809         20.91341   3.03203  2763   % 15.1250
    2764      -5.41471     26.32812         20.91341   3.03204  2764   % 15.1253
    2765      -5.41474     26.32815         20.91341   3.03204  2765   % 15.1257
    2766      -5.41478     26.32819         20.91341   3.03204  2766   % 15.1263
    2767      -5.41484     26.32825         20.91341   3.03204  2767   % 15.1271
    2768      -5.41492     26.32833         20.91341   3.03204  2768   % 15.1283
    2769      -5.41503     26.32844         20.91341   3.03204  2769   % 15.1299
    2770      -5.41509     26.32863         20.91354   3.03216  2770   % 15.1323
    2771      -5.40647     26.33087         20.92440   3.04303  2771   % 15.1351
    2772      -5.41362     26.35672         20.94310   3.06173  2772   % 15.1357
    2773      -5.41412     26.35726         20.94314   3.06177  2773   % 15.1357
    2774      -5.41462     26.35782         20.94320   3.06183  2774   % 15.1358
    2775      -5.41504     26.35831         20.94327   3.06190  2775   % 15.1358
    2776      -5.41531     26.35865         20.94334   3.06197  2776   % 15.1360
    2777      -5.41543     26.35882         20.94339   3.06202  2777   % 15.1361
    2778      -5.41547     26.35887         20.94340   3.06203  2778   % 15.1363
    2779      -5.41549     26.35889         20.94340   3.06203  2779   % 15.1367
    2780      -5.41552     26.35893         20.94340   3.06203  2780   % 15.1371
    2781      -5.41557     26.35897         20.94340   3.06203  2781   % 15.1378
    2782      -5.41563     26.35904         20.94340   3.06203  2782   % 15.1387
    2783      -5.41572     26.35913         20.94340   3.06203  2783   % 15.1401
    2784      -5.41580     26.35927         20.94347   3.06210  2784   % 15.1419
    2785      -5.41242     26.36039         20.94797   3.06659  2785   % 15.1448
    2786      -5.41220     26.37512         20.96291   3.08154  2786   % 15.1449
    2787      -5.41381     26.37693         20.96312   3.08175  2787   % 15.1450
    2788      -5.41474     26.37798         20.96324   3.08187  2788   % 15.1451
    2789      -5.41543     26.37879         20.96336   3.08199  2789   % 15.1452
    2790      -5.41585     26.37930         20.96345   3.08208  2790   % 15.1454
    2791      -5.41605     26.37958         20.96353   3.08216  2791   % 15.1456
    2792      -5.41612     26.37967         20.96356   3.08218  2792   % 15.1458
    2793      -5.41614     26.37970         20.96356   3.08219  2793   % 15.1461
    2794      -5.41617     26.37973         20.96356   3.08219  2794   % 15.1465
    2795      -5.41621     26.37977         20.96356   3.08219  2795   % 15.1471
    2796      -5.41627     26.37983         20.96356   3.08219  2796   % 15.1480
    2797      -5.41635     26.37991         20.96356   3.08219  2797   % 15.1492
    2798      -5.41644     26.38003         20.96359   3.08222  2798   % 15.1508
    2799      -5.41533     26.38057         20.96525   3.08387  2799   % 15.1536
    2800      -5.41095     26.38872         20.97777   3.09640  2800   % 15.1534


          FINAL GEOMETRY OBTAINED                                 CHARGE
 PM7 CHARGE=0 IRC=-1 LARGE=100 LET CYCLES=10000
 (irc)

   O    0.000000  0    0.000000  0    0.000000  0   0  0  0   -0.4959    2800AA*
   C    1.211798  1    0.000000  0    0.000000  0   1  0  0    0.4904    2800AB*
   C    1.470473  1  120.902863  1    0.000000  0   2  1  0   -0.3058    2800AC*
   C    1.343767  1  121.308369  1  175.654561  1   3  2  1   -0.0420    2800AD*
   C    1.450218  1  121.279450  1    1.048709  1   4  3  2   -0.2315    2800AE*
   C    1.343241  1  121.120211  1    1.403138  1   5  4  3   -0.0700    2800AF*
   C    1.490526  1  123.096215  1  358.409756  1   6  5  4   -0.2498    2800AG*
   H    1.087691  1  115.434673  1  356.196003  1   3  2  1    0.1755    2800AH*
   H    1.091365  1  121.642877  1  180.781696  1   4  3  2    0.1484    2800AI*
   H    1.088505  1  117.134521  1  181.059162  1   5  4  3    0.1580    2800AJ*
   C    1.543696  1  109.857091  1  123.802308  1   7  6  5   -0.2608    2800AK*
   H    1.136531  1  106.994093  1  241.122660  1   7  6  5    0.2175    2800AL*
   C    1.496763  1  111.356734  1  163.742020  1  11  7  6   -0.1174    2800AM*
   H    1.110318  1  109.310286  1   40.961841  1  11  7  6    0.1539    2800AN*
   H    1.110299  1  109.852493  1  285.603276  1  11  7  6    0.1545    2800AO*
   C    1.332081  1  122.948609  1  243.569032  1  13 11  7   -0.3350    2800AP*
   H    1.092686  1  114.956023  1   63.924036  1  13 11  7    0.1650    2800AQ*
   H    1.079502  1  124.122665  1    0.827629  1  16 13 11    0.1463    2800AR*
   H    1.079606  1  123.272202  1  180.581876  1  16 13 11    0.1437    2800AS*
   O    2.247253  1  161.470435  1  279.045332  1  12  7  6   -0.4957    2800AT*
   C    1.211785  1  101.085316  1  249.112406  1  20 12  7    0.4904    2800AU*
   C    1.470424  1  120.898376  1  138.992640  1  21 20 12   -0.3056    2800AV*
   C    1.343855  1  121.313694  1  184.176749  1  22 21 20   -0.0420    2800AW*
   C    1.450264  1  121.290711  1  358.986358  1  23 22 21   -0.2313    2800AX*
   C    1.343449  1  121.099566  1  358.659557  1  24 23 22   -0.0700    2800AY*
   C    1.490608  1  123.106970  1    1.587069  1  25 24 23   -0.2497    2800B@*
   H    1.086916  1  115.447260  1    3.655973  1  22 21 20    0.1755    2800BA*
   H    1.090360  1  121.634546  1  179.242539  1  23 22 21    0.1483    2800BB*
   H    1.085544  1  117.148121  1  179.001962  1  24 23 22    0.1578    2800BC*
   H    1.090775  1  121.913507  1  180.379386  1  25 24 23    0.1550    2800BD*
   C    1.543754  1  109.866728  1  236.043230  1  26 25 24   -0.2610    2800BE*
   H    2.249462  1  101.128369  1  221.018169  1   1  2  3    0.2174    2800BF*
   C    1.496786  1  111.356895  1  196.160597  1  31 26 25   -0.1171    2800BG*
   H    1.111242  1  109.833894  1   74.297710  1  31 26 25    0.1545    2800BH*
   H    1.111086  1  109.310591  1  318.957990  1  31 26 25    0.1539    2800BI*
   C    1.332298  1  122.966188  1  116.000519  1  33 31 26   -0.3352    2800BJ*
   H    1.093397  1  114.931323  1  295.675545  1  33 31 26    0.1650    2800BK*
   H    1.076845  1  124.094718  1  359.203066  1  36 33 31    0.1463    2800BL*
   H    1.076798  1  123.269858  1  179.439442  1  36 33 31    0.1436    2800BM*
   H    1.091271  1  121.935267  1  179.605261  1   6  5  4    0.1550    2800BN*


     POINT   POTENTIAL  +  ENERGY LOST   =   TOTAL      ERROR    REF%   MOVEMENT
    2801      -5.41456     26.39319         20.97863   3.09725  2801   % 15.1538
    2802      -5.41529     26.39399         20.97870   3.09733  2802   % 15.1539
    2803      -5.41594     26.39474         20.97880   3.09742  2803   % 15.1541
    2804      -5.41641     26.39531         20.97890   3.09753  2804   % 15.1543
    2805      -5.41665     26.39563         20.97898   3.09761  2805   % 15.1545
    2806      -5.41673     26.39574         20.97901   3.09764  2806   % 15.1547
    2807      -5.41675     26.39577         20.97902   3.09764  2807   % 15.1550
    2808      -5.41678     26.39579         20.97902   3.09764  2808   % 15.1554
    2809      -5.41682     26.39583         20.97902   3.09764  2809   % 15.1560
    2810      -5.41687     26.39589         20.97902   3.09764  2810   % 15.1568
    2811      -5.41695     26.39596         20.97902   3.09764  2811   % 15.1579
    2812      -5.41705     26.39607         20.97902   3.09765  2812   % 15.1594
    2813      -5.41700     26.39628         20.97929   3.09792  2813   % 15.1618
    2814      -5.40890     26.39950         20.99060   3.10923  2814   % 15.1626
    2815      -5.41734     26.41585         20.99851   3.11714  2815   % 15.1638


 IRC CALCULATION COMPLETE 

 **********************
 *                    *
 * JOB ENDED NORMALLY *
 *                    *
 **********************



 TOTAL JOB TIME:            92.64 SECONDS

 == MOPAC DONE ==
