 *******************************************************************************
 ** Site#: 9602  E-mail support:    MrMOPAC@ATT.net    Version 18.053W 64BITS **
 *******************************************************************************
 ** Cite this program as: MOPAC2016, Version: 18.053W, James J. P. Stewart,   **
 ** Stewart Computational Chemistry, web: HTTP://OpenMOPAC.net. Days left: 174**
 *******************************************************************************
 **                                                                           **
 **                                MOPAC2016                                  **
 **                                                                           **
 *******************************************************************************

                              PM7 CALCULATION RESULTS


 *******************************************************************************
 *  CALCULATION DONE:                                Thu Feb 22 16:12:29 2018  *
 *  GEO_DAT    - DATA SET GEOMETRY IS IN FILE "REACTANT (PROP-2-ENAL ANION PLUS C5H5N-CH3 CATION).ARC"
 *  GEO_REF    - REFERENCE GEOMETRY IS IN FILE "PRODUCT (PROP-2-ENAL PLUS C5H6N-CH3).ARC"
 *  EPS= 78.40 - USE ANDREAS KLAMT'S COSMO IMPLICIT SOLVATION MODEL
 *  SADDLE     - TRANSITION STATE TO BE OPTIMIZED
 *  T=         - A TIME OF 172800.0 SECONDS REQUESTED
 *  DUMP=N     - RESTART FILE WRITTEN EVERY  7200.000 SECONDS
 *  HTML       - WRITE HTML SCRIPT TO READ PDB FILE USING JSMOL
 *  HTML(NORES)- SUPPRESS LIST OF RESIDUES IN HTML FILE
 *******************************************************************************
GEO_DAT="Reactant (prop-2-enal anion plus C5H5N-CH3 cation).arc" +
GEO_REF="Product (prop-2-enal plus C5H6N-CH3).arc" +
eps=78.4 HTML(nores) saddle
 Locate the transition state for the reaction [CHO-CH-CH3]^(-) + [C5H5N-CH3]^(+) => CHO-CH=CH2 + C5H6N-CH3

   ATOM                 CHEMICAL                   X               Y               Z
  NUMBER                 SYMBOL               (ANGSTROMS)     (ANGSTROMS)     (ANGSTROMS)
 
     1       O(HETATM    1  O   HET A   1)   -0.17692269  *   0.03842988  *  -0.00321269  *
     2       C(HETATM    2  C   HET B   2)    3.39945679  *  -0.01446246  *   0.01091775  *
     3       C(HETATM    3  C   HET C   1)   -0.18286913  *   1.30146635  *   0.09899906  *
     4       C(HETATM    4  C1  HET D   2)    2.89491100  *   1.47139644  *   1.78622699  *
     5       N(HETATM    5  N   HET D   2)    2.87157723  *   0.22296474  *   1.24305349  *
     6       C(HETATM    6  C2  HET D   2)    3.47207291  *   2.52908863  *   1.08756623  *
     7       C(HETATM    7  C3  HET D   2)    4.03113350  *   2.30572926  *  -0.17010321  *
     8       C(HETATM    8  C4  HET D   2)    3.99362743  *   1.02056619  *  -0.70829176  *
     9       H(HETATM    9  H   HET E   1)   -0.62186618  *   1.66136579  *   1.04344131  *
    10       C(HETATM   11  C   HET F   2)    2.21581137  *  -0.86840258  *   1.96653730  *
    11       H(HETATM   12 1H1  HET K   1)    1.90421988  *   2.22775450  *  -2.20525555  *
    12       H(HETATM   13 2H1  HET K   1)    1.03559744  *   0.69469796  *  -2.14484584  *
    13       H(HETATM   14 3H1  HET K   1)    0.31728647  *   2.08609436  *  -2.97931049  *
    14       H(HETATM   15  H2  HET K   1)    0.21431848  *   3.25064427  *  -0.64055069  *
    15       H(HETATM   16  H1  HET D   2)    2.45564186  *   1.61273857  *   2.78866581  *
    16       H(HETATM   17  H2  HET D   2)    3.47780490  *   3.52936556  *   1.53416831  *
    17       H(HETATM   18  H3  HET D   2)    4.49262150  *   3.12855510  *  -0.72787485  *
    18       H(HETATM   19  H4  HET D   2)    4.42119381  *   0.81255064  *  -1.69541639  *
    19       H(HETATM   24 1H   HET F   2)    2.23729561  *  -0.71044710  *   3.06258213  *
    20       H(HETATM   25 2H   HET F   2)    2.70619068  *  -1.84213387  *   1.76992318  *
    21       H(HETATM   26 3H   HET F   2)    1.14799825  *  -0.94214636  *   1.64612148  *
    22       C(HETATM   27  C1  HET K   1)    0.90433256  *   1.78428079  *  -2.10286308  *
    23       C(HETATM   28  C2  HET K   1)    0.25894765  *   2.19587724  *  -0.82996553  *
    24       H(HETATM   26  H   HET B   2)    3.34283701  *  -1.04131872  *  -0.39019765  *
 

                        After docking

                     Atoms that move a lot

                     Atom Label             GEO_REF Coordinates       Movement    Integral

            (HETATM   11 1H1  HET K   1)   3.580   3.036  -0.999        1.91         1.91
            (HETATM   16  H2  HET D   2)   3.030   3.509   1.387        0.66         2.57
            (HETATM   17  H3  HET D   2)   5.056   2.758  -0.073        0.61         3.18
            (HETATM   13 3H1  HET K   1)   1.168   2.184  -2.874        0.53         3.71
            (HETATM    1  O   HET A   1)  -0.531   0.238   0.095        0.52         4.23
            (HETATM   22  C1  HET K   1)   0.787   1.629  -2.023        0.49         4.72
            (HETATM   14  H2  HET K   1)   0.054   3.286  -0.900        0.48         5.20
            (HETATM   12 2H1  HET K   1)   0.944   0.559  -2.105        0.44         5.64
            (HETATM    6  C2  HET D   2)   3.253   2.499   1.061        0.38         6.01
            (HETATM    7  C3  HET D   2)   4.019   2.376  -0.218        0.34         6.35
            (HETATM    5  N   HET D   2)   3.197   0.103   1.385        0.33         6.68
            (HETATM   19 1H   HET F   2)   2.376  -1.002   2.987        0.33         7.01
            (HETATM    9  H   HET E   1)  -0.413   1.940   1.139        0.32         7.33
            (HETATM   23  C2  HET K   1)   0.195   2.206  -0.974        0.31         7.64
            (HETATM   20 2H   HET F   2)   2.504  -1.916   1.463        0.31         7.95
            (HETATM   21 3H   HET F   2)   1.212  -0.706   1.658        0.29         8.24
            (HETATM    3  C   HET C   1)  -0.280   1.425   0.175        0.27         8.51
            (HETATM   18  H4  HET D   2)   4.465   0.812  -1.698        0.26         8.78
            (HETATM   24  H   HET B   2)   3.650  -1.105  -0.302        0.23         9.01
            (HETATM    8  C4  HET D   2)   4.063   0.961  -0.702        0.20         9.21
            (HETATM   15  H1  HET D   2)   2.315   1.504   2.712        0.20         9.40
            (HETATM    2  C   HET B   2)   3.629  -0.068   0.047        0.16         9.56
            (HETATM    4  C1  HET D   2)   2.862   1.426   1.768        0.15         9.71
            (HETATM   10  C   HET F   2)   2.268  -0.927   1.890        0.12         9.84

   Difference between GEO_DAT and GEO_REF:   9.835 = total,  0.4098 = Average,  0.5343 = RMS, in Angstroms

    The rotated-translated input geometry will be written to: 'M:\OpenMOPAC_NET\Manual\Individual JSmol paths\Hydride transfer to C4 on N-methyl pyridinium\Reactant (prop-2-enal anion plus C5H5N-CH3 cation).new'

 General Reference for PM7:
 "Optimization of Parameters for Semiempirical Methods VI: More Modifications to the 
 NDDO Approximations and Re-optimization of Parameters", J. J. P. Stewart, J. Mol. Mod., 1:32, 19 (2013)
 http://www.springerlink.com/openurl.asp?genre=article&id=doi:10.1007/s00894-012-1667-x

           Empirical Formula: C9 H13 N O  =    24 atoms



      MOLECULAR POINT GROUP   :   C1  


      RHF CALCULATION, NO. OF DOUBLY OCCUPIED LEVELS = 30



  CARTESIAN GEOMETRY OF FIRST SYSTEM


   1    O         -2.75658      -0.87549      -0.10949
   2    C          1.40392      -1.18126      -0.15741
   3    C         -2.50490       0.31156      -0.02883
   4    C          0.63647       0.31230       1.56389
   5    N          0.97188      -1.01102       1.18090
   6    C          1.02829       1.38544       0.85691
   7    C          1.79420       1.26190      -0.42215
   8    C          1.83777      -0.15274      -0.90577
   9    H         -2.63845       0.82641       0.93492
  10    C          0.04307      -2.04056       1.68577
  11    H          1.35505       1.92249      -1.20294
  12    H         -1.28092      -0.55499      -2.30914
  13    H         -1.05703       1.06987      -3.07792
  14    H         -2.17092       2.17235      -1.10417
  15    H          0.08971       0.39074       2.50822
  16    H          0.80456       2.39569       1.18282
  17    H          2.83129       1.64459      -0.27727
  18    H          2.23979      -0.30191      -1.90256
  19    H          0.15096      -2.11572       2.78325
  20    H          0.27858      -3.02979       1.25889
  21    H         -1.01308      -1.81920       1.45422
  22    C         -1.43803       0.51567      -2.22691
  23    C         -2.03012       1.09233      -1.17857
  24    H          1.42449      -2.21864      -0.50664


  CARTESIAN GEOMETRY OF SECOND SYSTEM


   1    O         -0.08102       0.12059      -0.13004
   2    C          3.48479      -0.03188       0.10507
   3    C         -0.06175       1.37813       0.02479
   4    C          2.90594       1.39424       1.90651
   5    N          2.88584       0.16997       1.31076
   6    C          3.55267       2.46298       1.29047
   7    C          4.18470       2.27536       0.06185
   8    C          4.14922       1.01458      -0.53135
   9    H         -0.55068       1.71149       0.95432
  10    C          2.15826      -0.93123       1.94522
  11    H          2.19006       2.33884      -2.10357
  12    H          1.28116       0.82925      -2.16222
  13    H          0.65244       2.27267      -2.98046
  14    H          0.43039       3.34392      -0.60566
  15    H          2.40758       1.50697       2.88464
  16    H          3.55513       3.44380       1.77835
  17    H          4.70119       3.10700      -0.43082
  18    H          4.63327       0.83497      -1.49776
  19    H          2.11405      -0.81847       3.04616
  20    H          2.63555      -1.90941       1.73871
  21    H          1.11144      -0.96233       1.55595
  22    C          1.17488       1.91945      -2.08259
  23    C          0.46048       2.29686      -0.83624
  24    H          3.42801      -1.03968      -0.34176


   "DISTANCE":    12.508011


  REACTION COORDINATE VECTOR


   1    O         -2.67556      -0.99608       0.02054
   2    C         -2.08087      -1.14939      -0.26247
   3    C         -2.44314      -1.06657      -0.05362
   4    C         -2.26947      -1.08195      -0.34262
   5    N         -1.91396      -1.18099      -0.12986
   6    C         -2.52439      -1.07754      -0.43356
   7    C         -2.39050      -1.01345      -0.48400
   8    C         -2.31145      -1.16733      -0.37442
   9    H         -2.08777      -0.88509      -0.01940
  10    C         -2.11519      -1.10933      -0.25946
  11    H         -0.83501      -0.41635       0.90063
  12    H         -2.56208      -1.38424      -0.14693
  13    H         -1.70947      -1.20280      -0.09746
  14    H         -2.60131      -1.17157      -0.49852
  15    H         -2.31786      -1.11623      -0.37642
  16    H         -2.75057      -1.04810      -0.59553
  17    H         -1.86990      -1.46241       0.15356
  18    H         -2.39348      -1.13688      -0.40480
  19    H         -1.96309      -1.29726      -0.26291
  20    H         -2.35697      -1.12039      -0.47982
  21    H         -2.12453      -0.85687      -0.10173
  22    C         -2.61291      -1.40378      -0.14432
  23    C         -2.49060      -1.20453      -0.34234
  24    H         -2.00352      -1.17896      -0.16488
 *+*+*+*+*+*+*+*+*+*+*+*+*+*+*+*+*+*+*+*+*+*+*+*+*+*+*+*+*+*+*+*+*+*+*+*+*+*+*+*+
            BAR SHORTENED BY       0.000 PERCENT
 GRADIENT CRITERION IN FLEPO =     1.000
 

                    SINCE COS WAS JUST RESET,THE SEARCH IS BEING ENDED


          FOR POINT    1 SECOND STRUCTURE
 DISTANCE A - B     12.508011
 HEAT               -2.714207
 GRADIENT NORM       1.926896
 DIRECTION COSINE    0.000002
 eps=78.4 HTML(nores)
 Locate the transition state for the reaction [CHO-CH-CH3]^(-) + [C5H5N-CH3]^(+) => CHO-CH=CH2 + C5H6N-CH3

  O(HETATM    1  O   HET A   1)   0.00000000 +1    0.0000000 +1    0.0000000 +1
  C(HETATM    2  C   HET B   2)   4.17199736 +1    0.0000000 +1    0.0000000 +1     1     0     0
  C(HETATM    3  C   HET C   1)   1.21611086 +1   82.2942206 +1    0.0000000 +1     1     2     0
  C(HETATM    4  C1  HET D   2)   2.40469510 +1   68.1603759 +1   46.1222383 +1     2     1     3
  N(HETATM    5  N   HET D   2)   1.41658147 +1   71.1068261 +1   80.1575970 +1     2     1     3
  C(HETATM    6  C2  HET D   2)   1.34349039 +1   91.5109371 +1 -105.5110396 +1     4     2     1
  C(HETATM    7  C3  HET D   2)   1.49595798 +1  122.2276009 +1   -6.1508841 +1     6     4     2
  C(HETATM    8  C4  HET D   2)   1.34392340 +1  105.7973566 +1  -39.0618544 +1     2     1     3
  H(HETATM    9  H   HET E   1)   1.10078351 +1  119.3072719 +1 -105.5023195 +1     3     1     2
  C(HETATM   10  C   HET F   2)   1.47564943 +1  115.5530344 +1   58.9070905 +1     5     2     1
  H(HETATM   11 1H1  HET K   1)   1.11303720 +1  110.4120805 +1  133.1434863 +1     7     6     4
  H(HETATM   12 2H1  HET K   1)   2.66810069 +1   56.4807728 +1   82.8391801 +1     1     2     3
  H(HETATM   13 3H1  HET K   1)   1.81143835 +1  121.7351706 +1 -108.7635893 +1    12     1     2
  H(HETATM   14  H2  HET K   1)   2.17496213 +1  146.5210976 +1   91.6493924 +1     3     1     2
  H(HETATM   15  H1  HET D   2)   1.09400804 +1  145.2761818 +1   66.8569880 +1     4     2     1
  H(HETATM   16  H2  HET D   2)   1.08484412 +1  121.7100163 +1  173.7674691 +1     6     4     2
  H(HETATM   17  H3  HET D   2)   1.11489907 +1  109.6822725 +1 -111.9294205 +1     7     6     4
  H(HETATM   18  H4  HET D   2)   1.08510377 +1  121.7304295 +1 -107.5600612 +1     8     2     1
  H(HETATM   19 1H   HET F   2)   1.10533282 +1  109.0083897 +1  152.9381739 +1    10     5     2
  H(HETATM   20 2H   HET F   2)   1.10284448 +1  111.0369933 +1   34.5609774 +1    10     5     2
  H(HETATM   21 3H   HET F   2)   1.10366271 +1  112.9926613 +1  -86.4979066 +1    10     5     2
  C(HETATM   22  C1  HET K   1)   1.08467290 +1   33.4154314 +1    8.3311793 +1    13    12     1
  C(HETATM   23  C2  HET K   1)   1.09169586 +1   37.5424621 +1  -32.9284335 +1    14     3     1
  H(HETATM   24  H   HET B   2)   1.09477635 +1   95.2699056 +1 -165.3058767 +1     2     1     3
 
 TIME=     0.30
  REACTANTS AND PRODUCTS SWAPPED AROUND
 *+*+*+*+*+*+*+*+*+*+*+*+*+*+*+*+*+*+*+*+*+*+*+*+*+*+*+*+*+*+*+*+*+*+*+*+*+*+*+*+
            BAR SHORTENED BY       1.000 PERCENT
 GRADIENT CRITERION IN FLEPO =     1.000
 

                    SINCE COS WAS JUST RESET,THE SEARCH IS BEING ENDED


          FOR POINT    2 FIRST  STRUCTURE
 DISTANCE A - B     12.382931
 HEAT               -0.830429
 GRADIENT NORM      17.033104
 DIRECTION COSINE   -0.245280
 eps=78.4 HTML(nores)
 Locate the transition state for the reaction [CHO-CH-CH3]^(-) + [C5H5N-CH3]^(+) => CHO-CH=CH2 + C5H6N-CH3

  O(HETATM    1  O   HET A   1)   0.00000000 +1    0.0000000 +1    0.0000000 +1
  C(HETATM    2  C   HET B   2)   3.58259701 +1    0.0000000 +1    0.0000000 +1     1     0     0
  C(HETATM    3  C   HET C   1)   1.26647089 +1   91.0117101 +1    0.0000000 +1     1     2     0
  C(HETATM    4  C1  HET D   2)   2.36975193 +1   77.2004507 +1   45.6779272 +1     2     1     3
  N(HETATM    5  N   HET D   2)   1.36204054 +1   29.5547964 +1   66.1186029 +1     4     2     1
  C(HETATM    6  C2  HET D   2)   1.39267691 +1   90.6685914 +1 -114.4123366 +1     4     2     1
  C(HETATM    7  C3  HET D   2)   1.39515965 +1  119.8463801 +1   -0.4431752 +1     6     4     2
  C(HETATM    8  C4  HET D   2)   1.39240495 +1  114.3047924 +1  -39.2173418 +1     2     1     3
  H(HETATM    9  H   HET E   1)   1.10115892 +1  113.3180667 +1 -115.2324199 +1     3     1     2
  C(HETATM   10  C   HET F   2)   1.46774854 +1  119.5340648 +1 -176.5603942 +1     5     4     2
  H(HETATM   11 1H1  HET K   1)   2.82641550 +1  106.2501958 +1  -11.5893114 +1     8     2     1
  H(HETATM   12 2H1  HET K   1)   1.77891754 +1   88.6981101 +1  -25.7729040 +1    11     8     2
  H(HETATM   13 3H1  HET K   1)   1.76811815 +1   60.3535492 +1 -179.9475929 +1    12    11     8
  H(HETATM   14  H2  HET K   1)   2.12173633 +1  152.4727170 +1   66.2322979 +1     3     1     2
  H(HETATM   15  H1  HET D   2)   1.10077973 +1  147.7048861 +1   66.0319558 +1     4     2     1
  H(HETATM   16  H2  HET D   2)   1.09465766 +1  119.3919529 +1  179.2852748 +1     6     4     2
  H(HETATM   17  H3  HET D   2)   1.09247761 +1  120.4950669 +1 -179.1846769 +1     7     6     4
  H(HETATM   18  H4  HET D   2)   1.09581802 +1  119.3575729 +1 -103.6907965 +1     8     2     1
  H(HETATM   19 1H   HET F   2)   1.10398587 +1  111.7199856 +1  -29.2526368 +1    10     5     4
  H(HETATM   20 2H   HET F   2)   1.11234332 +1  111.1564432 +1 -148.4908520 +1    10     5     4
  H(HETATM   21 3H   HET F   2)   1.11140570 +1  109.7187908 +1   91.6308238 +1    10     5     4
  C(HETATM   22  C1  HET K   1)   1.09222274 +1   36.2971493 +1  -38.5794272 +1    13    12    11
  C(HETATM   23  C2  HET K   1)   1.07243884 +1   33.5638649 +1    0.1238042 +1    14     3     1
  H(HETATM   24  H   HET B   2)   1.10372256 +1   87.8517057 +1 -163.2755991 +1     2     1     3
 
 TIME=     0.41
  REACTANTS AND PRODUCTS SWAPPED AROUND
 *+*+*+*+*+*+*+*+*+*+*+*+*+*+*+*+*+*+*+*+*+*+*+*+*+*+*+*+*+*+*+*+*+*+*+*+*+*+*+*+
            BAR SHORTENED BY       1.000 PERCENT
 GRADIENT CRITERION IN FLEPO =    10.000


          FOR POINT    3 SECOND STRUCTURE
 DISTANCE A - B     12.259102
 HEAT               -2.684307
 GRADIENT NORM      10.693599
 DIRECTION COSINE   -0.078533
 eps=78.4 HTML(nores)
 Locate the transition state for the reaction [CHO-CH-CH3]^(-) + [C5H5N-CH3]^(+) => CHO-CH=CH2 + C5H6N-CH3

  O(HETATM    1  O   HET A   1)   0.00000000 +1    0.0000000 +1    0.0000000 +1
  C(HETATM    2  C   HET B   2)   4.16762069 +1    0.0000000 +1    0.0000000 +1     1     0     0
  C(HETATM    3  C   HET C   1)   1.21442791 +1   82.3378246 +1    0.0000000 +1     1     2     0
  C(HETATM    4  C1  HET D   2)   2.40788081 +1   68.1778864 +1   45.9065245 +1     2     1     3
  N(HETATM    5  N   HET D   2)   1.41400568 +1   71.0159676 +1   79.9554044 +1     2     1     3
  C(HETATM    6  C2  HET D   2)   1.34469260 +1   91.3916219 +1 -105.6278771 +1     4     2     1
  C(HETATM    7  C3  HET D   2)   1.49519497 +1  122.3917562 +1   -5.7854548 +1     6     4     2
  C(HETATM    8  C4  HET D   2)   1.34434340 +1  105.7767610 +1  -39.3365803 +1     2     1     3
  H(HETATM    9  H   HET E   1)   1.10136205 +1  119.4531752 +1 -105.9029449 +1     3     1     2
  C(HETATM   10  C   HET F   2)   1.47532601 +1  115.6998217 +1   58.9475208 +1     5     2     1
  H(HETATM   11 1H1  HET K   1)   1.11646536 +1  110.5614338 +1  132.0277284 +1     7     6     4
  H(HETATM   12 2H1  HET K   1)   2.66643570 +1   56.5553594 +1   82.9955090 +1     1     2     3
  H(HETATM   13 3H1  HET K   1)   1.81178246 +1  121.6124871 +1 -109.0473521 +1    12     1     2
  H(HETATM   14  H2  HET K   1)   2.17755052 +1  146.3599975 +1   91.7878050 +1     3     1     2
  H(HETATM   15  H1  HET D   2)   1.09469078 +1  145.1863499 +1   66.9365071 +1     4     2     1
  H(HETATM   16  H2  HET D   2)   1.08548747 +1  121.4477213 +1  174.0388988 +1     6     4     2
  H(HETATM   17  H3  HET D   2)   1.11487109 +1  109.6792912 +1 -112.5278832 +1     7     6     4
  H(HETATM   18  H4  HET D   2)   1.08272253 +1  121.9750198 +1 -107.6286498 +1     8     2     1
  H(HETATM   19 1H   HET F   2)   1.10743576 +1  109.0406855 +1  153.0014463 +1    10     5     2
  H(HETATM   20 2H   HET F   2)   1.10408764 +1  110.9292375 +1   34.8801669 +1    10     5     2
  H(HETATM   21 3H   HET F   2)   1.10368852 +1  113.2077488 +1  -86.3251115 +1    10     5     2
  C(HETATM   22  C1  HET K   1)   1.08427355 +1   88.4363064 +1 -104.2485283 +1    12     1     2
  C(HETATM   23  C2  HET K   1)   1.09412736 +1   37.5243377 +1  -33.0126636 +1    14     3     1
  H(HETATM   24  H   HET B   2)   1.09238249 +1   95.0098033 +1 -165.4058785 +1     2     1     3
 
 *+*+*+*+*+*+*+*+*+*+*+*+*+*+*+*+*+*+*+*+*+*+*+*+*+*+*+*+*+*+*+*+*+*+*+*+*+*+*+*+
            BAR SHORTENED BY       1.000 PERCENT
 GRADIENT CRITERION IN FLEPO =     7.694


          FOR POINT    4 SECOND STRUCTURE
 DISTANCE A - B     12.136511
 HEAT               -2.641234
 GRADIENT NORM      13.387569
 DIRECTION COSINE    0.363414
 eps=78.4 HTML(nores)
 Locate the transition state for the reaction [CHO-CH-CH3]^(-) + [C5H5N-CH3]^(+) => CHO-CH=CH2 + C5H6N-CH3

  O(HETATM    1  O   HET A   1)   0.00000000 +1    0.0000000 +1    0.0000000 +1
  C(HETATM    2  C   HET B   2)   4.15640883 +1    0.0000000 +1    0.0000000 +1     1     0     0
  C(HETATM    3  C   HET C   1)   1.21540742 +1   82.4140140 +1    0.0000000 +1     1     2     0
  C(HETATM    4  C1  HET D   2)   2.40408532 +1   68.3478497 +1   46.0978103 +1     2     1     3
  N(HETATM    5  N   HET D   2)   1.41343069 +1   71.1410573 +1   80.0592622 +1     2     1     3
  C(HETATM    6  C2  HET D   2)   1.34540638 +1   91.4790220 +1 -105.7227074 +1     4     2     1
  C(HETATM    7  C3  HET D   2)   1.49626694 +1  122.3266219 +1   -5.6336980 +1     6     4     2
  C(HETATM    8  C4  HET D   2)   1.34815345 +1  106.4130380 +1  -39.0542466 +1     2     1     3
  H(HETATM    9  H   HET E   1)   1.10134697 +1  119.1930340 +1 -105.9408453 +1     3     1     2
  C(HETATM   10  C   HET F   2)   1.47537226 +1  115.5721986 +1   58.9896797 +1     5     2     1
  H(HETATM   11 1H1  HET K   1)   1.11262105 +1  110.6812341 +1  131.2599924 +1     7     6     4
  H(HETATM   12 2H1  HET K   1)   2.66773714 +1   56.5769723 +1   82.7576704 +1     1     2     3
  H(HETATM   13 3H1  HET K   1)   1.81259073 +1  121.6427143 +1 -109.2356293 +1    12     1     2
  H(HETATM   14  H2  HET K   1)   2.17728010 +1  146.6554101 +1   91.0751003 +1     3     1     2
  H(HETATM   15  H1  HET D   2)   1.09101034 +1  145.2481848 +1   66.4192503 +1     4     2     1
  H(HETATM   16  H2  HET D   2)   1.08354601 +1  121.6867489 +1  174.2715446 +1     6     4     2
  H(HETATM   17  H3  HET D   2)   1.11635464 +1  109.6875356 +1 -113.2216337 +1     7     6     4
  H(HETATM   18  H4  HET D   2)   1.08260806 +1  121.8625580 +1 -107.0587377 +1     8     2     1
  H(HETATM   19 1H   HET F   2)   1.10602654 +1  109.0118690 +1  153.4194612 +1    10     5     2
  H(HETATM   20 2H   HET F   2)   1.10486735 +1  110.7005292 +1   35.3197715 +1    10     5     2
  H(HETATM   21 3H   HET F   2)   1.10023299 +1  113.0416994 +1  -85.9954284 +1    10     5     2
  C(HETATM   22  C1  HET K   1)   1.08433638 +1   88.5498725 +1 -104.3665191 +1    12     1     2
  C(HETATM   23  C2  HET K   1)   1.09140602 +1   37.4104137 +1  -32.0608361 +1    14     3     1
  H(HETATM   24  H   HET B   2)   1.09394172 +1   95.2915043 +1 -165.2317769 +1     2     1     3
 
 *+*+*+*+*+*+*+*+*+*+*+*+*+*+*+*+*+*+*+*+*+*+*+*+*+*+*+*+*+*+*+*+*+*+*+*+*+*+*+*+
            BAR SHORTENED BY       1.000 PERCENT
 GRADIENT CRITERION IN FLEPO =    10.000


          FOR POINT    5 SECOND STRUCTURE
 DISTANCE A - B     12.015146
 HEAT               -2.632698
 GRADIENT NORM       5.514394
 DIRECTION COSINE   -0.007203
 eps=78.4 HTML(nores)
 Locate the transition state for the reaction [CHO-CH-CH3]^(-) + [C5H5N-CH3]^(+) => CHO-CH=CH2 + C5H6N-CH3

  O(HETATM    1  O   HET A   1)   0.00000000 +1    0.0000000 +1    0.0000000 +1
  C(HETATM    2  C   HET B   2)   4.15169934 +1    0.0000000 +1    0.0000000 +1     1     0     0
  C(HETATM    3  C   HET C   1)   1.21621617 +1   82.5293371 +1    0.0000000 +1     1     2     0
  C(HETATM    4  C1  HET D   2)   2.40433244 +1   68.4093408 +1   46.0099801 +1     2     1     3
  N(HETATM    5  N   HET D   2)   1.41554794 +1   71.0481663 +1   79.9785760 +1     2     1     3
  C(HETATM    6  C2  HET D   2)   1.34381718 +1   91.4491690 +1 -105.8448055 +1     4     2     1
  C(HETATM    7  C3  HET D   2)   1.49722587 +1  122.3815048 +1   -5.3549436 +1     6     4     2
  C(HETATM    8  C4  HET D   2)   1.34381517 +1  106.4028194 +1  -39.1178363 +1     2     1     3
  H(HETATM    9  H   HET E   1)   1.09985242 +1  119.3134440 +1 -105.9094505 +1     3     1     2
  C(HETATM   10  C   HET F   2)   1.47426794 +1  115.6829862 +1   59.1847579 +1     5     2     1
  H(HETATM   11 1H1  HET K   1)   1.11581722 +1  110.7592646 +1  130.2488635 +1     7     6     4
  H(HETATM   12 2H1  HET K   1)   2.66865102 +1   56.6391338 +1   82.8862916 +1     1     2     3
  H(HETATM   13 3H1  HET K   1)   1.81200174 +1  121.4436285 +1 -109.3270240 +1    12     1     2
  H(HETATM   14  H2  HET K   1)   2.17611151 +1  146.6265359 +1   90.9623781 +1     3     1     2
  H(HETATM   15  H1  HET D   2)   1.09430797 +1  145.2772992 +1   66.3406364 +1     4     2     1
  H(HETATM   16  H2  HET D   2)   1.08479799 +1  121.6531040 +1  174.4022452 +1     6     4     2
  H(HETATM   17  H3  HET D   2)   1.11515666 +1  109.6051800 +1 -113.7875597 +1     7     6     4
  H(HETATM   18  H4  HET D   2)   1.08644053 +1  121.3538997 +1 -107.3127337 +1     8     2     1
  H(HETATM   19 1H   HET F   2)   1.10506116 +1  109.0948408 +1  153.5783766 +1    10     5     2
  H(HETATM   20 2H   HET F   2)   1.10295495 +1  110.8049536 +1   35.2283697 +1    10     5     2
  H(HETATM   21 3H   HET F   2)   1.10499355 +1  112.8224418 +1  -85.7132122 +1    10     5     2
  C(HETATM   22  C1  HET K   1)   1.08423501 +1   33.5134412 +1    9.2815726 +1    13    12     1
  C(HETATM   23  C2  HET K   1)   1.09198050 +1   37.4806179 +1  -32.0107600 +1    14     3     1
  H(HETATM   24  H   HET B   2)   1.09488599 +1   95.0555565 +1 -165.3823648 +1     2     1     3
 
 TIME=     0.43
  REACTANTS AND PRODUCTS SWAPPED AROUND
 *+*+*+*+*+*+*+*+*+*+*+*+*+*+*+*+*+*+*+*+*+*+*+*+*+*+*+*+*+*+*+*+*+*+*+*+*+*+*+*+
            BAR SHORTENED BY       0.000 PERCENT
 GRADIENT CRITERION IN FLEPO =     2.514
 

                    SINCE COS WAS JUST RESET,THE SEARCH IS BEING ENDED


          FOR POINT    6 FIRST  STRUCTURE
 DISTANCE A - B     12.015146
 HEAT               -0.830429
 GRADIENT NORM      17.033079
 DIRECTION COSINE    0.209276
 eps=78.4 HTML(nores)
 Locate the transition state for the reaction [CHO-CH-CH3]^(-) + [C5H5N-CH3]^(+) => CHO-CH=CH2 + C5H6N-CH3

  O(HETATM    1  O   HET A   1)   0.00000000 +1    0.0000000 +1    0.0000000 +1
  C(HETATM    2  C   HET B   2)   3.58259701 +1    0.0000000 +1    0.0000000 +1     1     0     0
  C(HETATM    3  C   HET C   1)   1.26647089 +1   91.0117100 +1    0.0000000 +1     1     2     0
  C(HETATM    4  C1  HET D   2)   2.36975193 +1   77.2004507 +1   45.6779272 +1     2     1     3
  N(HETATM    5  N   HET D   2)   1.36204054 +1   29.5547964 +1   66.1186029 +1     4     2     1
  C(HETATM    6  C2  HET D   2)   1.39267691 +1   90.6685914 +1 -114.4123366 +1     4     2     1
  C(HETATM    7  C3  HET D   2)   1.39515965 +1  119.8463802 +1   -0.4431752 +1     6     4     2
  C(HETATM    8  C4  HET D   2)   1.39240495 +1  114.3047924 +1  -39.2173417 +1     2     1     3
  H(HETATM    9  H   HET E   1)   1.10115892 +1  113.3180668 +1 -115.2324199 +1     3     1     2
  C(HETATM   10  C   HET F   2)   1.46774854 +1  119.5340649 +1 -176.5603942 +1     5     4     2
  H(HETATM   11 1H1  HET K   1)   2.82641550 +1  106.2501958 +1  -11.5893113 +1     8     2     1
  H(HETATM   12 2H1  HET K   1)   1.77891754 +1   88.6981101 +1  -25.7729041 +1    11     8     2
  H(HETATM   13 3H1  HET K   1)   1.76811815 +1   60.3535493 +1 -179.9475929 +1    12    11     8
  H(HETATM   14  H2  HET K   1)   2.12173633 +1  152.4727170 +1   66.2322978 +1     3     1     2
  H(HETATM   15  H1  HET D   2)   1.10077973 +1  147.7048862 +1   66.0319559 +1     4     2     1
  H(HETATM   16  H2  HET D   2)   1.09465766 +1  119.3919530 +1  179.2852749 +1     6     4     2
  H(HETATM   17  H3  HET D   2)   1.09247761 +1  120.4950668 +1 -179.1846768 +1     7     6     4
  H(HETATM   18  H4  HET D   2)   1.09581802 +1  119.3575729 +1 -103.6907966 +1     8     2     1
  H(HETATM   19 1H   HET F   2)   1.10398588 +1  111.7199855 +1  -29.2526369 +1    10     5     4
  H(HETATM   20 2H   HET F   2)   1.11234332 +1  111.1564431 +1 -148.4908519 +1    10     5     4
  H(HETATM   21 3H   HET F   2)   1.11140570 +1  109.7187907 +1   91.6308238 +1    10     5     4
  C(HETATM   22  C1  HET K   1)   1.09222275 +1   36.2971494 +1  -38.5794268 +1    13    12    11
  C(HETATM   23  C2  HET K   1)   1.07243884 +1   33.5638650 +1    0.1238040 +1    14     3     1
  H(HETATM   24  H   HET B   2)   1.10372256 +1   87.8517059 +1 -163.2755991 +1     2     1     3
 
 TIME=     0.25
  REACTANTS AND PRODUCTS SWAPPED AROUND
 *+*+*+*+*+*+*+*+*+*+*+*+*+*+*+*+*+*+*+*+*+*+*+*+*+*+*+*+*+*+*+*+*+*+*+*+*+*+*+*+
            BAR SHORTENED BY       1.000 PERCENT
 GRADIENT CRITERION IN FLEPO =    10.000


          FOR POINT    7 SECOND STRUCTURE
 DISTANCE A - B     11.894994
 HEAT               -2.555174
 GRADIENT NORM      17.202189
 DIRECTION COSINE   -0.069327
 eps=78.4 HTML(nores)
 Locate the transition state for the reaction [CHO-CH-CH3]^(-) + [C5H5N-CH3]^(+) => CHO-CH=CH2 + C5H6N-CH3

  O(HETATM    1  O   HET A   1)   0.00000000 +1    0.0000000 +1    0.0000000 +1
  C(HETATM    2  C   HET B   2)   4.15214575 +1    0.0000000 +1    0.0000000 +1     1     0     0
  C(HETATM    3  C   HET C   1)   1.21318449 +1   82.6063889 +1    0.0000000 +1     1     2     0
  C(HETATM    4  C1  HET D   2)   2.40634816 +1   68.2701614 +1   45.7188378 +1     2     1     3
  N(HETATM    5  N   HET D   2)   1.41315359 +1   70.7856656 +1   79.7664924 +1     2     1     3
  C(HETATM    6  C2  HET D   2)   1.34494874 +1   91.4481878 +1 -106.0604015 +1     4     2     1
  C(HETATM    7  C3  HET D   2)   1.49460536 +1  122.4206114 +1   -4.7854625 +1     6     4     2
  C(HETATM    8  C4  HET D   2)   1.34291265 +1  105.9994599 +1  -39.4616379 +1     2     1     3
  H(HETATM    9  H   HET E   1)   1.10107227 +1  119.5845356 +1 -106.0880941 +1     3     1     2
  C(HETATM   10  C   HET F   2)   1.47379851 +1  115.9506802 +1   59.2484196 +1     5     2     1
  H(HETATM   11 1H1  HET K   1)   1.12106771 +1  110.9219190 +1  129.0454559 +1     7     6     4
  H(HETATM   12 2H1  HET K   1)   2.66187884 +1   56.7694824 +1   82.9786927 +1     1     2     3
  H(HETATM   13 3H1  HET K   1)   1.81179609 +1  121.5927310 +1 -109.6264594 +1    12     1     2
  H(HETATM   14  H2  HET K   1)   2.17961959 +1  146.4565606 +1   91.1207970 +1     3     1     2
  H(HETATM   15  H1  HET D   2)   1.09600004 +1  145.3127612 +1   67.2482809 +1     4     2     1
  H(HETATM   16  H2  HET D   2)   1.08575902 +1  121.4103980 +1  174.7535348 +1     6     4     2
  H(HETATM   17  H3  HET D   2)   1.11507006 +1  109.6731915 +1 -114.4892192 +1     7     6     4
  H(HETATM   18  H4  HET D   2)   1.08441579 +1  121.5908971 +1 -107.8606479 +1     8     2     1
  H(HETATM   19 1H   HET F   2)   1.10857895 +1  109.1192250 +1  153.3957343 +1    10     5     2
  H(HETATM   20 2H   HET F   2)   1.10538415 +1  110.6581805 +1   35.4565595 +1    10     5     2
  H(HETATM   21 3H   HET F   2)   1.09951093 +1  113.1953694 +1  -85.8684754 +1    10     5     2
  C(HETATM   22  C1  HET K   1)   1.08375005 +1   88.4921248 +1 -104.3096988 +1    12     1     2
  C(HETATM   23  C2  HET K   1)   1.09581449 +1   37.4848719 +1  -32.1340194 +1    14     3     1
  H(HETATM   24  H   HET B   2)   1.09123518 +1   94.5173968 +1 -165.4816462 +1     2     1     3
 
 TIME=     0.12
  REACTANTS AND PRODUCTS SWAPPED AROUND
 *+*+*+*+*+*+*+*+*+*+*+*+*+*+*+*+*+*+*+*+*+*+*+*+*+*+*+*+*+*+*+*+*+*+*+*+*+*+*+*+
            BAR SHORTENED BY       1.000 PERCENT
 GRADIENT CRITERION IN FLEPO =    10.000


          FOR POINT    8 FIRST  STRUCTURE
 DISTANCE A - B     11.776044
 HEAT               -0.761845
 GRADIENT NORM      13.058192
 DIRECTION COSINE    0.122366
 eps=78.4 HTML(nores)
 Locate the transition state for the reaction [CHO-CH-CH3]^(-) + [C5H5N-CH3]^(+) => CHO-CH=CH2 + C5H6N-CH3

  O(HETATM    1  O   HET A   1)   0.00000000 +1    0.0000000 +1    0.0000000 +1
  C(HETATM    2  C   HET B   2)   3.59373901 +1    0.0000000 +1    0.0000000 +1     1     0     0
  C(HETATM    3  C   HET C   1)   1.26855988 +1   90.9464104 +1    0.0000000 +1     1     2     0
  C(HETATM    4  C1  HET D   2)   2.36699178 +1   76.9096059 +1   45.7269763 +1     2     1     3
  N(HETATM    5  N   HET D   2)   1.36146738 +1   29.6473545 +1   66.0245150 +1     4     2     1
  C(HETATM    6  C2  HET D   2)   1.39213491 +1   90.5711823 +1 -114.3246827 +1     4     2     1
  C(HETATM    7  C3  HET D   2)   1.39732688 +1  120.0320105 +1   -0.6980481 +1     6     4     2
  C(HETATM    8  C4  HET D   2)   1.39255161 +1  113.9076634 +1  -39.2573155 +1     2     1     3
  H(HETATM    9  H   HET E   1)   1.09992187 +1  113.0536817 +1 -115.1673104 +1     3     1     2
  C(HETATM   10  C   HET F   2)   1.46443861 +1  119.7046796 +1 -177.1461111 +1     5     4     2
  H(HETATM   11 1H1  HET K   1)   2.81736724 +1  106.6152744 +1  -11.6831226 +1     8     2     1
  H(HETATM   12 2H1  HET K   1)   1.77736353 +1   88.9641451 +1  -25.6807517 +1    11     8     2
  H(HETATM   13 3H1  HET K   1)   1.76778221 +1   60.3168977 +1  179.9682130 +1    12    11     8
  H(HETATM   14  H2  HET K   1)   2.12028014 +1  152.3473217 +1   66.4273060 +1     3     1     2
  H(HETATM   15  H1  HET D   2)   1.11051432 +1  148.0819952 +1   64.2491776 +1     4     2     1
  H(HETATM   16  H2  HET D   2)   1.09483996 +1  118.8051044 +1  177.8489501 +1     6     4     2
  H(HETATM   17  H3  HET D   2)   1.09361962 +1  120.6822200 +1 -179.3636031 +1     7     6     4
  H(HETATM   18  H4  HET D   2)   1.09779065 +1  119.0280737 +1 -103.8529575 +1     8     2     1
  H(HETATM   19 1H   HET F   2)   1.10836112 +1  111.9985624 +1  -28.4950817 +1    10     5     4
  H(HETATM   20 2H   HET F   2)   1.10562365 +1  111.7593226 +1 -149.1179644 +1    10     5     4
  H(HETATM   21 3H   HET F   2)   1.11834110 +1  109.5265653 +1   91.6983637 +1    10     5     4
  C(HETATM   22  C1  HET K   1)   1.09771188 +1   36.5697015 +1  -38.2715693 +1    13    12    11
  C(HETATM   23  C2  HET K   1)   1.07057966 +1   33.6048493 +1   -0.8406787 +1    14     3     1
  H(HETATM   24  H   HET B   2)   1.10408074 +1   87.8963075 +1 -163.1616452 +1     2     1     3
 
 TIME=     0.17
  REACTANTS AND PRODUCTS SWAPPED AROUND
 *+*+*+*+*+*+*+*+*+*+*+*+*+*+*+*+*+*+*+*+*+*+*+*+*+*+*+*+*+*+*+*+*+*+*+*+*+*+*+*+
            BAR SHORTENED BY       1.000 PERCENT
 GRADIENT CRITERION IN FLEPO =    10.000


          FOR POINT    9 SECOND STRUCTURE
 DISTANCE A - B     11.658284
 HEAT               -2.570419
 GRADIENT NORM      11.426334
 DIRECTION COSINE    0.040161
 eps=78.4 HTML(nores)
 Locate the transition state for the reaction [CHO-CH-CH3]^(-) + [C5H5N-CH3]^(+) => CHO-CH=CH2 + C5H6N-CH3

  O(HETATM    1  O   HET A   1)   0.00000000 +1    0.0000000 +1    0.0000000 +1
  C(HETATM    2  C   HET B   2)   4.14494847 +1    0.0000000 +1    0.0000000 +1     1     0     0
  C(HETATM    3  C   HET C   1)   1.21608048 +1   82.6247737 +1    0.0000000 +1     1     2     0
  C(HETATM    4  C1  HET D   2)   2.40488242 +1   68.4275281 +1   45.7200508 +1     2     1     3
  N(HETATM    5  N   HET D   2)   1.41384968 +1   70.8443074 +1   79.6705777 +1     2     1     3
  C(HETATM    6  C2  HET D   2)   1.34421700 +1   91.5104366 +1 -106.0892472 +1     4     2     1
  C(HETATM    7  C3  HET D   2)   1.49610739 +1  122.4058541 +1   -4.6313691 +1     6     4     2
  C(HETATM    8  C4  HET D   2)   1.34453515 +1  106.3284674 +1  -39.3818749 +1     2     1     3
  H(HETATM    9  H   HET E   1)   1.10278745 +1  119.3319167 +1 -106.0078297 +1     3     1     2
  C(HETATM   10  C   HET F   2)   1.47444042 +1  115.8663098 +1   59.4112114 +1     5     2     1
  H(HETATM   11 1H1  HET K   1)   1.11791747 +1  111.0518530 +1  128.3649958 +1     7     6     4
  H(HETATM   12 2H1  HET K   1)   2.66254431 +1   56.7551470 +1   82.9537501 +1     1     2     3
  H(HETATM   13 3H1  HET K   1)   1.81203150 +1  121.4944816 +1 -109.8571113 +1    12     1     2
  H(HETATM   14  H2  HET K   1)   2.17669861 +1  146.4758306 +1   91.0067326 +1     3     1     2
  H(HETATM   15  H1  HET D   2)   1.09339170 +1  145.2910710 +1   67.0816709 +1     4     2     1
  H(HETATM   16  H2  HET D   2)   1.08372187 +1  121.7225896 +1  175.0295641 +1     6     4     2
  H(HETATM   17  H3  HET D   2)   1.11354228 +1  111.0268398 +1 -115.4268126 +1     7     6     4
  H(HETATM   18  H4  HET D   2)   1.08276488 +1  122.0870877 +1 -107.4890646 +1     8     2     1
  H(HETATM   19 1H   HET F   2)   1.10534886 +1  109.1817282 +1  153.7423589 +1    10     5     2
  H(HETATM   20 2H   HET F   2)   1.10341330 +1  110.6554218 +1   35.5037012 +1    10     5     2
  H(HETATM   21 3H   HET F   2)   1.10341191 +1  112.9345841 +1  -85.6941230 +1    10     5     2
  C(HETATM   22  C1  HET K   1)   1.08653289 +1   33.5276414 +1    9.3473750 +1    13    12     1
  C(HETATM   23  C2  HET K   1)   1.09211121 +1   37.4123072 +1  -31.9640874 +1    14     3     1
  H(HETATM   24  H   HET B   2)   1.09836767 +1   94.7993082 +1 -165.4612462 +1     2     1     3
 
 *+*+*+*+*+*+*+*+*+*+*+*+*+*+*+*+*+*+*+*+*+*+*+*+*+*+*+*+*+*+*+*+*+*+*+*+*+*+*+*+
            BAR SHORTENED BY       1.000 PERCENT
 GRADIENT CRITERION IN FLEPO =     8.426


          FOR POINT   10 SECOND STRUCTURE
 DISTANCE A - B     11.541701
 HEAT               -2.526593
 GRADIENT NORM      16.115406
 DIRECTION COSINE   -0.071963
 eps=78.4 HTML(nores)
 Locate the transition state for the reaction [CHO-CH-CH3]^(-) + [C5H5N-CH3]^(+) => CHO-CH=CH2 + C5H6N-CH3

  O(HETATM    1  O   HET A   1)   0.00000000 +1    0.0000000 +1    0.0000000 +1
  C(HETATM    2  C   HET B   2)   4.13996937 +1    0.0000000 +1    0.0000000 +1     1     0     0
  C(HETATM    3  C   HET C   1)   1.21363488 +1   82.9220322 +1    0.0000000 +1     1     2     0
  C(HETATM    4  C1  HET D   2)   2.40936251 +1   68.4498222 +1   45.5416850 +1     2     1     3
  N(HETATM    5  N   HET D   2)   1.41575607 +1   70.9001869 +1   79.3914659 +1     2     1     3
  C(HETATM    6  C2  HET D   2)   1.34555526 +1   91.6629753 +1 -106.1664309 +1     4     2     1
  C(HETATM    7  C3  HET D   2)   1.49610449 +1  122.3369871 +1   -4.3284730 +1     6     4     2
  C(HETATM    8  C4  HET D   2)   1.34627230 +1  106.1816550 +1  -39.1557743 +1     2     1     3
  H(HETATM    9  H   HET E   1)   1.09860638 +1  119.4312358 +1 -105.9747134 +1     3     1     2
  C(HETATM   10  C   HET F   2)   1.47667316 +1  115.5726226 +1   59.3331944 +1     5     2     1
  H(HETATM   11 1H1  HET K   1)   1.12019030 +1  111.1090691 +1  127.4532766 +1     7     6     4
  H(HETATM   12 2H1  HET K   1)   2.66171944 +1   56.8753185 +1   82.8751082 +1     1     2     3
  H(HETATM   13 3H1  HET K   1)   1.81096399 +1  121.6258665 +1 -109.9911116 +1    12     1     2
  H(HETATM   14  H2  HET K   1)   2.17452584 +1  146.3940631 +1   91.4553933 +1     3     1     2
  H(HETATM   15  H1  HET D   2)   1.09737590 +1  145.0079048 +1   67.0089489 +1     4     2     1
  H(HETATM   16  H2  HET D   2)   1.08694223 +1  121.5641661 +1  175.3073215 +1     6     4     2
  H(HETATM   17  H3  HET D   2)   1.11457133 +1  110.5184432 +1 -115.9356843 +1     7     6     4
  H(HETATM   18  H4  HET D   2)   1.08682190 +1  121.7849142 +1 -107.7861816 +1     8     2     1
  H(HETATM   19 1H   HET F   2)   1.10729133 +1  108.9334917 +1  154.1225547 +1    10     5     2
  H(HETATM   20 2H   HET F   2)   1.10340611 +1  110.8202196 +1   36.2540560 +1    10     5     2
  H(HETATM   21 3H   HET F   2)   1.10315684 +1  113.2327914 +1  -85.3859647 +1    10     5     2
  C(HETATM   22  C1  HET K   1)   1.08376590 +1   88.5249241 +1 -104.7060501 +1    12     1     2
  C(HETATM   23  C2  HET K   1)   1.09140557 +1   37.5427899 +1  -33.0886831 +1    14     3     1
  H(HETATM   24  H   HET B   2)   1.08916202 +1   94.9466280 +1 -165.5043356 +1     2     1     3
 
 TIME=     0.27
  REACTANTS AND PRODUCTS SWAPPED AROUND
 *+*+*+*+*+*+*+*+*+*+*+*+*+*+*+*+*+*+*+*+*+*+*+*+*+*+*+*+*+*+*+*+*+*+*+*+*+*+*+*+
            BAR SHORTENED BY       1.000 PERCENT
 GRADIENT CRITERION IN FLEPO =    10.000


          FOR POINT   11 FIRST  STRUCTURE
 DISTANCE A - B     11.426284
 HEAT               -0.687756
 GRADIENT NORM      19.861843
 DIRECTION COSINE    0.142269
 eps=78.4 HTML(nores)
 Locate the transition state for the reaction [CHO-CH-CH3]^(-) + [C5H5N-CH3]^(+) => CHO-CH=CH2 + C5H6N-CH3

  O(HETATM    1  O   HET A   1)   0.00000000 +1    0.0000000 +1    0.0000000 +1
  C(HETATM    2  C   HET B   2)   3.59817217 +1    0.0000000 +1    0.0000000 +1     1     0     0
  C(HETATM    3  C   HET C   1)   1.26715185 +1   90.8001479 +1    0.0000000 +1     1     2     0
  C(HETATM    4  C1  HET D   2)   2.36695094 +1   76.8502071 +1   45.7203392 +1     2     1     3
  N(HETATM    5  N   HET D   2)   1.36017040 +1   29.6586585 +1   66.0699190 +1     4     2     1
  C(HETATM    6  C2  HET D   2)   1.39275276 +1   90.5373577 +1 -114.2412779 +1     4     2     1
  C(HETATM    7  C3  HET D   2)   1.39789200 +1  119.8018411 +1   -0.8296608 +1     6     4     2
  C(HETATM    8  C4  HET D   2)   1.39015138 +1  119.0187777 +1    1.4591275 +1     7     6     4
  H(HETATM    9  H   HET E   1)   1.10151643 +1  113.2569159 +1 -115.2228090 +1     3     1     2
  C(HETATM   10  C   HET F   2)   1.46784728 +1  119.7820463 +1 -176.1843073 +1     5     4     2
  H(HETATM   11 1H1  HET K   1)   2.81157877 +1   80.1340543 +1  102.4288914 +1     8     7     6
  H(HETATM   12 2H1  HET K   1)   1.78240500 +1   89.0975473 +1 -144.0816274 +1    11     8     7
  H(HETATM   13 3H1  HET K   1)   1.76542250 +1   60.4739618 +1 -179.7993541 +1    12    11     8
  H(HETATM   14  H2  HET K   1)   2.12321555 +1  152.3858165 +1   66.9808610 +1     3     1     2
  H(HETATM   15  H1  HET D   2)   1.10688527 +1  147.5231873 +1   64.6598746 +1     4     2     1
  H(HETATM   16  H2  HET D   2)   1.09445918 +1  118.9752854 +1  177.9684890 +1     6     4     2
  H(HETATM   17  H3  HET D   2)   1.09790000 +1  120.2076845 +1 -179.0756347 +1     7     6     4
  H(HETATM   18  H4  HET D   2)   1.09614288 +1  121.0199607 +1  178.8717119 +1     8     7     6
  H(HETATM   19 1H   HET F   2)   1.11278840 +1  112.1791671 +1  -28.6852362 +1    10     5     4
  H(HETATM   20 2H   HET F   2)   1.10724031 +1  111.9579386 +1 -149.2686929 +1    10     5     4
  H(HETATM   21 3H   HET F   2)   1.12488487 +1  110.5803494 +1   90.6706751 +1    10     5     4
  C(HETATM   22  C1  HET K   1)   1.09678087 +1   36.5279810 +1  -38.3023628 +1    13    12    11
  C(HETATM   23  C2  HET K   1)   1.07084037 +1   33.5745835 +1   -1.5403637 +1    14     3     1
  H(HETATM   24  H   HET B   2)   1.10329877 +1   87.9943598 +1 -163.1737859 +1     2     1     3
 
 TIME=     0.19
  REACTANTS AND PRODUCTS SWAPPED AROUND
 *+*+*+*+*+*+*+*+*+*+*+*+*+*+*+*+*+*+*+*+*+*+*+*+*+*+*+*+*+*+*+*+*+*+*+*+*+*+*+*+
            BAR SHORTENED BY       1.000 PERCENT
 GRADIENT CRITERION IN FLEPO =    10.000


          FOR POINT   12 SECOND STRUCTURE
 DISTANCE A - B     11.312021
 HEAT               -2.539700
 GRADIENT NORM       9.958070
 DIRECTION COSINE    0.270463
 eps=78.4 HTML(nores)
 Locate the transition state for the reaction [CHO-CH-CH3]^(-) + [C5H5N-CH3]^(+) => CHO-CH=CH2 + C5H6N-CH3

  O(HETATM    1  O   HET A   1)   0.00000000 +1    0.0000000 +1    0.0000000 +1
  C(HETATM    2  C   HET B   2)   4.13627126 +1    0.0000000 +1    0.0000000 +1     1     0     0
  C(HETATM    3  C   HET C   1)   1.21620093 +1   82.8606321 +1    0.0000000 +1     1     2     0
  C(HETATM    4  C1  HET D   2)   2.40749083 +1   68.5480229 +1   45.5261072 +1     2     1     3
  N(HETATM    5  N   HET D   2)   1.41550340 +1   70.8341638 +1   79.4350859 +1     2     1     3
  C(HETATM    6  C2  HET D   2)   1.34526647 +1   91.6421685 +1 -106.2374348 +1     4     2     1
  C(HETATM    7  C3  HET D   2)   1.49787428 +1  122.2949372 +1   -4.0290877 +1     6     4     2
  C(HETATM    8  C4  HET D   2)   1.34462221 +1  106.5005994 +1  -39.3020052 +1     2     1     3
  H(HETATM    9  H   HET E   1)   1.10361455 +1  119.3697314 +1 -106.1931191 +1     3     1     2
  C(HETATM   10  C   HET F   2)   1.47488062 +1  115.8081630 +1   59.4343369 +1     5     2     1
  H(HETATM   11 1H1  HET K   1)   1.11719302 +1  111.1689733 +1  126.8945635 +1     7     6     4
  H(HETATM   12 2H1  HET K   1)   2.65325377 +1   56.7621967 +1   82.8277182 +1     1     2     3
  H(HETATM   13 3H1  HET K   1)   1.81465599 +1  121.8164978 +1 -110.4970254 +1    12     1     2
  H(HETATM   14  H2  HET K   1)   2.17783479 +1  146.3887471 +1   90.6068619 +1     3     1     2
  H(HETATM   15  H1  HET D   2)   1.09011882 +1  145.5034440 +1   67.0275465 +1     4     2     1
  H(HETATM   16  H2  HET D   2)   1.08507129 +1  121.6311703 +1  175.4306584 +1     6     4     2
  H(HETATM   17  H3  HET D   2)   1.11632336 +1  110.0981644 +1 -116.3862945 +1     7     6     4
  H(HETATM   18  H4  HET D   2)   1.08601152 +1  121.7612244 +1 -107.6622480 +1     8     2     1
  H(HETATM   19 1H   HET F   2)   1.10527596 +1  109.1148694 +1  154.3470979 +1    10     5     2
  H(HETATM   20 2H   HET F   2)   1.10022541 +1  110.6320998 +1   36.2193177 +1    10     5     2
  H(HETATM   21 3H   HET F   2)   1.10379757 +1  112.9180012 +1  -84.8032021 +1    10     5     2
  C(HETATM   22  C1  HET K   1)   1.08513344 +1   33.2743828 +1   10.0094803 +1    13    12     1
  C(HETATM   23  C2  HET K   1)   1.08973869 +1   37.2929727 +1  -31.4900707 +1    14     3     1
  H(HETATM   24  H   HET B   2)   1.09452992 +1   94.9981934 +1 -165.5712469 +1     2     1     3
 
 *+*+*+*+*+*+*+*+*+*+*+*+*+*+*+*+*+*+*+*+*+*+*+*+*+*+*+*+*+*+*+*+*+*+*+*+*+*+*+*+
            BAR SHORTENED BY       1.000 PERCENT
 GRADIENT CRITERION IN FLEPO =     6.958


          FOR POINT   13 SECOND STRUCTURE
 DISTANCE A - B     11.198901
 HEAT               -2.554903
 GRADIENT NORM      11.082461
 DIRECTION COSINE    0.352782
 eps=78.4 HTML(nores)
 Locate the transition state for the reaction [CHO-CH-CH3]^(-) + [C5H5N-CH3]^(+) => CHO-CH=CH2 + C5H6N-CH3

  O(HETATM    1  O   HET A   1)   0.00000000 +1    0.0000000 +1    0.0000000 +1
  C(HETATM    2  C   HET B   2)   4.13068364 +1    0.0000000 +1    0.0000000 +1     1     0     0
  C(HETATM    3  C   HET C   1)   1.21585275 +1   82.9328007 +1    0.0000000 +1     1     2     0
  C(HETATM    4  C1  HET D   2)   2.40364389 +1   68.5767609 +1   45.5781754 +1     2     1     3
  N(HETATM    5  N   HET D   2)   1.41302374 +1   70.7512259 +1   79.5333499 +1     2     1     3
  C(HETATM    6  C2  HET D   2)   1.34585351 +1   91.4648399 +1 -106.2725773 +1     4     2     1
  C(HETATM    7  C3  HET D   2)   1.49968947 +1  122.5897380 +1   -3.6596927 +1     6     4     2
  C(HETATM    8  C4  HET D   2)   1.34534236 +1  106.4619944 +1  -39.5149100 +1     2     1     3
  H(HETATM    9  H   HET E   1)   1.09890120 +1  119.1352756 +1 -106.2884323 +1     3     1     2
  C(HETATM   10  C   HET F   2)   1.47522078 +1  115.8208156 +1   59.4063934 +1     5     2     1
  H(HETATM   11 1H1  HET K   1)   1.11538658 +1  111.0546812 +1  126.4523217 +1     7     6     4
  H(HETATM   12 2H1  HET K   1)   2.65900885 +1   56.8837979 +1   82.7602360 +1     1     2     3
  H(HETATM   13 3H1  HET K   1)   1.81343603 +1  121.6234479 +1 -110.5429625 +1    12     1     2
  H(HETATM   14  H2  HET K   1)   2.17650166 +1  146.5941537 +1   90.6647547 +1     3     1     2
  H(HETATM   15  H1  HET D   2)   1.09491659 +1  145.2832538 +1   66.9727536 +1     4     2     1
  H(HETATM   16  H2  HET D   2)   1.08780967 +1  121.3295157 +1  175.7567683 +1     6     4     2
  H(HETATM   17  H3  HET D   2)   1.11103404 +1  109.4948774 +1 -116.8778598 +1     7     6     4
  H(HETATM   18  H4  HET D   2)   1.08350190 +1  121.9751542 +1 -108.2214227 +1     8     2     1
  H(HETATM   19 1H   HET F   2)   1.10729948 +1  109.0780885 +1  154.5052779 +1    10     5     2
  H(HETATM   20 2H   HET F   2)   1.10418647 +1  110.5511539 +1   36.4352557 +1    10     5     2
  H(HETATM   21 3H   HET F   2)   1.10044743 +1  113.2015571 +1  -84.7660295 +1    10     5     2
  C(HETATM   22  C1  HET K   1)   1.08224692 +1   88.5991064 +1 -104.9439557 +1    12     1     2
  C(HETATM   23  C2  HET K   1)   1.09284384 +1   37.4335325 +1  -31.4722386 +1    14     3     1
  H(HETATM   24  H   HET B   2)   1.09487875 +1   95.0116942 +1 -165.4461414 +1     2     1     3
 
 *+*+*+*+*+*+*+*+*+*+*+*+*+*+*+*+*+*+*+*+*+*+*+*+*+*+*+*+*+*+*+*+*+*+*+*+*+*+*+*+
            BAR SHORTENED BY       1.000 PERCENT
 GRADIENT CRITERION IN FLEPO =     8.082


          FOR POINT   14 SECOND STRUCTURE
 DISTANCE A - B     11.086912
 HEAT               -2.475507
 GRADIENT NORM      14.261221
 DIRECTION COSINE   -0.043441
 eps=78.4 HTML(nores)
 Locate the transition state for the reaction [CHO-CH-CH3]^(-) + [C5H5N-CH3]^(+) => CHO-CH=CH2 + C5H6N-CH3

  O(HETATM    1  O   HET A   1)   0.00000000 +1    0.0000000 +1    0.0000000 +1
  C(HETATM    2  C   HET B   2)   4.12424241 +1    0.0000000 +1    0.0000000 +1     1     0     0
  C(HETATM    3  C   HET C   1)   1.21637945 +1   82.9693113 +1    0.0000000 +1     1     2     0
  C(HETATM    4  C1  HET D   2)   2.40290253 +1   68.6841917 +1   45.3950731 +1     2     1     3
  N(HETATM    5  N   HET D   2)   1.41479551 +1   70.8188479 +1   79.4690822 +1     2     1     3
  C(HETATM    6  C2  HET D   2)   1.34613490 +1   91.4300017 +1 -106.1913035 +1     4     2     1
  C(HETATM    7  C3  HET D   2)   1.49612832 +1  122.5796042 +1   -3.7730179 +1     6     4     2
  C(HETATM    8  C4  HET D   2)   1.34017786 +1  106.5057972 +1  -39.6447772 +1     2     1     3
  H(HETATM    9  H   HET E   1)   1.10041673 +1  119.3862347 +1 -106.4640511 +1     3     1     2
  C(HETATM   10  C   HET F   2)   1.47568575 +1  115.9422170 +1   59.3963293 +1     5     2     1
  H(HETATM   11 1H1  HET K   1)   1.12208127 +1  111.0235521 +1  126.1183657 +1     7     6     4
  H(HETATM   12 2H1  HET K   1)   2.65730635 +1   56.9398459 +1   82.8994994 +1     1     2     3
  H(HETATM   13 3H1  HET K   1)   1.81019723 +1  121.5660336 +1 -110.5885779 +1    12     1     2
  H(HETATM   14  H2  HET K   1)   2.17646005 +1  146.4191443 +1   90.7314786 +1     3     1     2
  H(HETATM   15  H1  HET D   2)   1.09504779 +1  145.3406770 +1   66.9795228 +1     4     2     1
  H(HETATM   16  H2  HET D   2)   1.08467902 +1  121.1948001 +1  176.2080367 +1     6     4     2
  H(HETATM   17  H3  HET D   2)   1.11236236 +1  109.7995900 +1 -117.1106038 +1     7     6     4
  H(HETATM   18  H4  HET D   2)   1.08790638 +1  121.9079308 +1 -108.3028265 +1     8     2     1
  H(HETATM   19 1H   HET F   2)   1.10344928 +1  109.1061835 +1  154.9846514 +1    10     5     2
  H(HETATM   20 2H   HET F   2)   1.10366079 +1  110.5220025 +1   36.7179911 +1    10     5     2
  H(HETATM   21 3H   HET F   2)   1.10527788 +1  113.0400969 +1  -84.5113684 +1    10     5     2
  C(HETATM   22  C1  HET K   1)   1.08256768 +1   33.5003030 +1   10.1676698 +1    13    12     1
  C(HETATM   23  C2  HET K   1)   1.08983469 +1   37.5295129 +1  -31.6143139 +1    14     3     1
  H(HETATM   24  H   HET B   2)   1.09109974 +1   95.1740726 +1 -166.7222682 +1     2     1     3
 
 TIME=     0.38
  REACTANTS AND PRODUCTS SWAPPED AROUND
 *+*+*+*+*+*+*+*+*+*+*+*+*+*+*+*+*+*+*+*+*+*+*+*+*+*+*+*+*+*+*+*+*+*+*+*+*+*+*+*+
            BAR SHORTENED BY       0.000 PERCENT
 GRADIENT CRITERION IN FLEPO =    10.000


          FOR POINT   15 FIRST  STRUCTURE
 DISTANCE A - B     11.086912
 HEAT               -0.711823
 GRADIENT NORM      18.280413
 DIRECTION COSINE   -0.049830
 eps=78.4 HTML(nores)
 Locate the transition state for the reaction [CHO-CH-CH3]^(-) + [C5H5N-CH3]^(+) => CHO-CH=CH2 + C5H6N-CH3

  O(HETATM    1  O   HET A   1)   0.00000000 +1    0.0000000 +1    0.0000000 +1
  C(HETATM    2  C   HET B   2)   3.59769182 +1    0.0000000 +1    0.0000000 +1     1     0     0
  C(HETATM    3  C   HET C   1)   1.26723855 +1   90.7999920 +1    0.0000000 +1     1     2     0
  C(HETATM    4  C1  HET D   2)   2.36736729 +1   76.8479668 +1   45.7178380 +1     2     1     3
  N(HETATM    5  N   HET D   2)   1.36085644 +1   29.7415518 +1   65.7454369 +1     4     2     1
  C(HETATM    6  C2  HET D   2)   1.39064876 +1   90.4664812 +1 -114.2564310 +1     4     2     1
  C(HETATM    7  C3  HET D   2)   1.39684769 +1  120.0153758 +1   -0.7776794 +1     6     4     2
  C(HETATM    8  C4  HET D   2)   1.39095997 +1  118.9173798 +1    1.3552111 +1     7     6     4
  H(HETATM    9  H   HET E   1)   1.09979580 +1  112.9402960 +1 -115.2971558 +1     3     1     2
  C(HETATM   10  C   HET F   2)   1.46559139 +1  119.8997881 +1 -176.7027278 +1     5     4     2
  H(HETATM   11 1H1  HET K   1)   2.81356395 +1   80.1512954 +1  102.4678731 +1     8     7     6
  H(HETATM   12 2H1  HET K   1)   1.77950947 +1   89.0918790 +1 -144.0358158 +1    11     8     7
  H(HETATM   13 3H1  HET K   1)   1.76578278 +1   60.4484124 +1 -179.8264736 +1    12    11     8
  H(HETATM   14  H2  HET K   1)   2.12290473 +1  152.4143867 +1   67.0291771 +1     3     1     2
  H(HETATM   15  H1  HET D   2)   1.10606631 +1  147.4960336 +1   64.7268610 +1     4     2     1
  H(HETATM   16  H2  HET D   2)   1.09662480 +1  119.0001749 +1  177.9935158 +1     6     4     2
  H(HETATM   17  H3  HET D   2)   1.09643559 +1  120.4071022 +1 -179.3220897 +1     7     6     4
  H(HETATM   18  H4  HET D   2)   1.09699167 +1  121.1511814 +1  178.8631944 +1     8     7     6
  H(HETATM   19 1H   HET F   2)   1.11180588 +1  112.1892398 +1  -28.4796526 +1    10     5     4
  H(HETATM   20 2H   HET F   2)   1.10769086 +1  111.9798609 +1 -149.0999050 +1    10     5     4
  H(HETATM   21 3H   HET F   2)   1.12987527 +1  109.7066544 +1   91.6730863 +1    10     5     4
  C(HETATM   22  C1  HET K   1)   1.09765239 +1   36.5379256 +1  -38.2574318 +1    13    12    11
  C(HETATM   23  C2  HET K   1)   1.07112028 +1   33.5638105 +1   -1.6071792 +1    14     3     1
  H(HETATM   24  H   HET B   2)   1.10307375 +1   88.0233583 +1 -163.1504036 +1     2     1     3
 
 TIME=     0.14
  REACTANTS AND PRODUCTS SWAPPED AROUND
 *+*+*+*+*+*+*+*+*+*+*+*+*+*+*+*+*+*+*+*+*+*+*+*+*+*+*+*+*+*+*+*+*+*+*+*+*+*+*+*+
            BAR SHORTENED BY       1.000 PERCENT
 GRADIENT CRITERION IN FLEPO =    10.000


          FOR POINT   16 SECOND STRUCTURE
 DISTANCE A - B     10.976043
 HEAT               -2.547096
 GRADIENT NORM       8.823161
 DIRECTION COSINE    0.222291
 eps=78.4 HTML(nores)
 Locate the transition state for the reaction [CHO-CH-CH3]^(-) + [C5H5N-CH3]^(+) => CHO-CH=CH2 + C5H6N-CH3

  O(HETATM    1  O   HET A   1)   0.00000000 +1    0.0000000 +1    0.0000000 +1
  C(HETATM    2  C   HET B   2)   4.11803602 +1    0.0000000 +1    0.0000000 +1     1     0     0
  C(HETATM    3  C   HET C   1)   1.21694004 +1   82.9003948 +1    0.0000000 +1     1     2     0
  C(HETATM    4  C1  HET D   2)   2.40166337 +1   68.7634841 +1   45.3849823 +1     2     1     3
  N(HETATM    5  N   HET D   2)   1.41347213 +1   70.7825768 +1   79.3570252 +1     2     1     3
  C(HETATM    6  C2  HET D   2)   1.34507721 +1   91.4919094 +1 -106.2483041 +1     4     2     1
  C(HETATM    7  C3  HET D   2)   1.49674654 +1  122.6028541 +1   -3.4542430 +1     6     4     2
  C(HETATM    8  C4  HET D   2)   1.34399384 +1  106.5912256 +1  -39.6710831 +1     2     1     3
  H(HETATM    9  H   HET E   1)   1.10038828 +1  119.2459725 +1 -106.6053855 +1     3     1     2
  C(HETATM   10  C   HET F   2)   1.47291267 +1  115.9083743 +1   59.4264750 +1     5     2     1
  H(HETATM   11 1H1  HET K   1)   1.11785791 +1  111.1826561 +1  125.5247148 +1     7     6     4
  H(HETATM   12 2H1  HET K   1)   2.65991049 +1   57.1035636 +1   82.8227461 +1     1     2     3
  H(HETATM   13 3H1  HET K   1)   1.80826330 +1  121.5425876 +1 -110.5486804 +1    12     1     2
  H(HETATM   14  H2  HET K   1)   2.17539598 +1  146.5469427 +1   91.0742557 +1     3     1     2
  H(HETATM   15  H1  HET D   2)   1.09385826 +1  145.4963496 +1   67.2265797 +1     4     2     1
  H(HETATM   16  H2  HET D   2)   1.08348749 +1  121.6160371 +1  176.3275265 +1     6     4     2
  H(HETATM   17  H3  HET D   2)   1.11541988 +1  110.0496239 +1 -117.7447803 +1     7     6     4
  H(HETATM   18  H4  HET D   2)   1.08542740 +1  121.7522805 +1 -108.4175098 +1     8     2     1
  H(HETATM   19 1H   HET F   2)   1.10559820 +1  109.1767573 +1  154.8339370 +1    10     5     2
  H(HETATM   20 2H   HET F   2)   1.10695219 +1  110.5290642 +1   36.9530478 +1    10     5     2
  H(HETATM   21 3H   HET F   2)   1.10292696 +1  113.3307015 +1  -84.3966142 +1    10     5     2
  C(HETATM   22  C1  HET K   1)   1.08408790 +1   88.4569254 +1 -104.8393228 +1    12     1     2
  C(HETATM   23  C2  HET K   1)   1.09129662 +1   37.4469165 +1  -31.7601477 +1    14     3     1
  H(HETATM   24  H   HET B   2)   1.09546783 +1   95.2834856 +1 -166.3576552 +1     2     1     3
 
 *+*+*+*+*+*+*+*+*+*+*+*+*+*+*+*+*+*+*+*+*+*+*+*+*+*+*+*+*+*+*+*+*+*+*+*+*+*+*+*+
            BAR SHORTENED BY       1.000 PERCENT
 GRADIENT CRITERION IN FLEPO =     5.823


          FOR POINT   17 SECOND STRUCTURE
 DISTANCE A - B     10.866282
 HEAT               -2.484217
 GRADIENT NORM      15.501107
 DIRECTION COSINE    0.106641
 eps=78.4 HTML(nores)
 Locate the transition state for the reaction [CHO-CH-CH3]^(-) + [C5H5N-CH3]^(+) => CHO-CH=CH2 + C5H6N-CH3

  O(HETATM    1  O   HET A   1)   0.00000000 +1    0.0000000 +1    0.0000000 +1
  C(HETATM    2  C   HET B   2)   4.11463383 +1    0.0000000 +1    0.0000000 +1     1     0     0
  C(HETATM    3  C   HET C   1)   1.21365356 +1   83.1569970 +1    0.0000000 +1     1     2     0
  C(HETATM    4  C1  HET D   2)   2.40490260 +1   68.7673207 +1   45.2497944 +1     2     1     3
  N(HETATM    5  N   HET D   2)   1.41382224 +1   70.6345055 +1   79.1656563 +1     2     1     3
  C(HETATM    6  C2  HET D   2)   1.34469098 +1   91.5443035 +1 -106.3396647 +1     4     2     1
  C(HETATM    7  C3  HET D   2)   1.50258649 +1  122.5698515 +1   -3.0123146 +1     6     4     2
  C(HETATM    8  C4  HET D   2)   1.34364158 +1  106.6074246 +1  -39.7004731 +1     2     1     3
  H(HETATM    9  H   HET E   1)   1.10034137 +1  119.4728846 +1 -106.4699901 +1     3     1     2
  C(HETATM   10  C   HET F   2)   1.47569988 +1  115.9253347 +1   59.7142288 +1     5     2     1
  H(HETATM   11 1H1  HET K   1)   1.11785248 +1  111.0669955 +1  124.9632059 +1     7     6     4
  H(HETATM   12 2H1  HET K   1)   2.65545266 +1   57.1635448 +1   82.8561102 +1     1     2     3
  H(HETATM   13 3H1  HET K   1)   1.81153247 +1  121.6026509 +1 -110.7052402 +1    12     1     2
  H(HETATM   14  H2  HET K   1)   2.17917997 +1  146.5335509 +1   90.6728951 +1     3     1     2
  H(HETATM   15  H1  HET D   2)   1.09591313 +1  145.3505506 +1   67.5309315 +1     4     2     1
  H(HETATM   16  H2  HET D   2)   1.08414235 +1  121.4156957 +1  176.5344059 +1     6     4     2
  H(HETATM   17  H3  HET D   2)   1.11385583 +1  109.4581966 +1 -118.3011004 +1     7     6     4
  H(HETATM   18  H4  HET D   2)   1.08381053 +1  121.5163955 +1 -108.6625241 +1     8     2     1
  H(HETATM   19 1H   HET F   2)   1.10551414 +1  109.2754518 +1  155.0079834 +1    10     5     2
  H(HETATM   20 2H   HET F   2)   1.10235836 +1  110.6538225 +1   36.6018091 +1    10     5     2
  H(HETATM   21 3H   HET F   2)   1.10310586 +1  112.9303749 +1  -84.4762049 +1    10     5     2
  C(HETATM   22  C1  HET K   1)   1.08557021 +1   33.5388342 +1   10.6905204 +1    13    12     1
  C(HETATM   23  C2  HET K   1)   1.09432571 +1   37.4843590 +1  -31.4898936 +1    14     3     1
  H(HETATM   24  H   HET B   2)   1.09290989 +1   95.2948810 +1 -166.2336723 +1     2     1     3
 
 *+*+*+*+*+*+*+*+*+*+*+*+*+*+*+*+*+*+*+*+*+*+*+*+*+*+*+*+*+*+*+*+*+*+*+*+*+*+*+*+
            BAR SHORTENED BY       1.000 PERCENT
 GRADIENT CRITERION IN FLEPO =    10.000


          FOR POINT   18 SECOND STRUCTURE
 DISTANCE A - B     10.757620
 HEAT               -2.400150
 GRADIENT NORM      22.786051
 DIRECTION COSINE    0.304022
 eps=78.4 HTML(nores)
 Locate the transition state for the reaction [CHO-CH-CH3]^(-) + [C5H5N-CH3]^(+) => CHO-CH=CH2 + C5H6N-CH3

  O(HETATM    1  O   HET A   1)   0.00000000 +1    0.0000000 +1    0.0000000 +1
  C(HETATM    2  C   HET B   2)   4.11661443 +1    0.0000000 +1    0.0000000 +1     1     0     0
  C(HETATM    3  C   HET C   1)   1.21618541 +1   83.1545964 +1    0.0000000 +1     1     2     0
  C(HETATM    4  C1  HET D   2)   2.40242881 +1   68.9060562 +1   45.1839588 +1     2     1     3
  N(HETATM    5  N   HET D   2)   1.41114877 +1   70.7454202 +1   79.1163050 +1     2     1     3
  C(HETATM    6  C2  HET D   2)   1.34893147 +1   91.3020827 +1 -105.9337911 +1     4     2     1
  C(HETATM    7  C3  HET D   2)   1.49151367 +1  122.7816045 +1   -3.3428439 +1     6     4     2
  C(HETATM    8  C4  HET D   2)   1.34463385 +1  106.6013153 +1  -39.9233156 +1     2     1     3
  H(HETATM    9  H   HET E   1)   1.10212782 +1  119.3675077 +1 -106.3213715 +1     3     1     2
  C(HETATM   10  C   HET F   2)   1.47963190 +1  115.9429485 +1   59.3729830 +1     5     2     1
  H(HETATM   11 1H1  HET K   1)   1.11841062 +1  110.9913617 +1  125.0340698 +1     7     6     4
  H(HETATM   12 2H1  HET K   1)   2.65510666 +1   57.1978887 +1   82.7919163 +1     1     2     3
  H(HETATM   13 3H1  HET K   1)   1.81073096 +1  121.6508754 +1 -110.9118653 +1    12     1     2
  H(HETATM   14  H2  HET K   1)   2.17660519 +1  146.5475971 +1   90.6197455 +1     3     1     2
  H(HETATM   15  H1  HET D   2)   1.09247863 +1  145.4563270 +1   67.4013819 +1     4     2     1
  H(HETATM   16  H2  HET D   2)   1.09835477 +1  122.1514301 +1  176.6289540 +1     6     4     2
  H(HETATM   17  H3  HET D   2)   1.11416800 +1  109.9052503 +1 -118.2087721 +1     7     6     4
  H(HETATM   18  H4  HET D   2)   1.08928698 +1  121.5376226 +1 -108.4388285 +1     8     2     1
  H(HETATM   19 1H   HET F   2)   1.10576118 +1  109.0949394 +1  155.2532410 +1    10     5     2
  H(HETATM   20 2H   HET F   2)   1.10280935 +1  110.5663567 +1   37.3367424 +1    10     5     2
  H(HETATM   21 3H   HET F   2)   1.10307417 +1  113.1837743 +1  -83.9527267 +1    10     5     2
  C(HETATM   22  C1  HET K   1)   1.08733599 +1   88.3720417 +1 -105.4611752 +1    12     1     2
  C(HETATM   23  C2  HET K   1)   1.09164144 +1   37.4342532 +1  -31.2851867 +1    14     3     1
  H(HETATM   24  H   HET B   2)   1.09462582 +1   94.9930420 +1 -166.1324742 +1     2     1     3
 
 TIME=     0.45
  REACTANTS AND PRODUCTS SWAPPED AROUND
 *+*+*+*+*+*+*+*+*+*+*+*+*+*+*+*+*+*+*+*+*+*+*+*+*+*+*+*+*+*+*+*+*+*+*+*+*+*+*+*+
            BAR SHORTENED BY       0.000 PERCENT
 GRADIENT CRITERION IN FLEPO =    10.000


          FOR POINT   19 FIRST  STRUCTURE
 DISTANCE A - B     10.757620
 HEAT               -0.719521
 GRADIENT NORM      11.809199
 DIRECTION COSINE    0.164977
 eps=78.4 HTML(nores)
 Locate the transition state for the reaction [CHO-CH-CH3]^(-) + [C5H5N-CH3]^(+) => CHO-CH=CH2 + C5H6N-CH3

  O(HETATM    1  O   HET A   1)   0.00000000 +1    0.0000000 +1    0.0000000 +1
  C(HETATM    2  C   HET B   2)   3.59662795 +1    0.0000000 +1    0.0000000 +1     1     0     0
  C(HETATM    3  C   HET C   1)   1.26742240 +1   90.8114353 +1    0.0000000 +1     1     2     0
  C(HETATM    4  C1  HET D   2)   2.36738957 +1   76.8506736 +1   45.7151149 +1     2     1     3
  N(HETATM    5  N   HET D   2)   1.36145097 +1   29.6966977 +1   65.8093590 +1     4     2     1
  C(HETATM    6  C2  HET D   2)   1.39204804 +1   90.4719991 +1 -114.2531653 +1     4     2     1
  C(HETATM    7  C3  HET D   2)   1.39568349 +1  120.0100063 +1   -0.7288136 +1     6     4     2
  C(HETATM    8  C4  HET D   2)   1.39207438 +1  113.9878067 +1  -39.3960860 +1     2     1     3
  H(HETATM    9  H   HET E   1)   1.10083740 +1  112.9511064 +1 -115.3254595 +1     3     1     2
  C(HETATM   10  C   HET F   2)   1.46575338 +1  119.8452600 +1 -176.5044594 +1     5     4     2
  H(HETATM   11 1H1  HET K   1)   2.81621971 +1  106.5361896 +1  -11.4700100 +1     8     2     1
  H(HETATM   12 2H1  HET K   1)   1.77468761 +1   89.0926508 +1  -25.8897256 +1    11     8     2
  H(HETATM   13 3H1  HET K   1)   1.76607843 +1   60.4137848 +1 -179.8194801 +1    12    11     8
  H(HETATM   14  H2  HET K   1)   2.12225186 +1  152.4482043 +1   67.1254029 +1     3     1     2
  H(HETATM   15  H1  HET D   2)   1.10477586 +1  147.5525751 +1   64.7628936 +1     4     2     1
  H(HETATM   16  H2  HET D   2)   1.09567295 +1  119.1289285 +1  178.2267966 +1     6     4     2
  H(HETATM   17  H3  HET D   2)   1.09528036 +1  120.4587539 +1 -179.4255543 +1     7     6     4
  H(HETATM   18  H4  HET D   2)   1.09601050 +1  119.2562027 +1 -103.3989757 +1     8     2     1
  H(HETATM   19 1H   HET F   2)   1.10128755 +1  112.1551444 +1  -28.6678895 +1    10     5     4
  H(HETATM   20 2H   HET F   2)   1.10814527 +1  111.8547107 +1 -149.0454963 +1    10     5     4
  H(HETATM   21 3H   HET F   2)   1.12420199 +1  109.6931875 +1   91.3857022 +1    10     5     4
  C(HETATM   22  C1  HET K   1)   1.09816535 +1   36.5488592 +1  -38.1574333 +1    13    12    11
  C(HETATM   23  C2  HET K   1)   1.07158588 +1   33.5586060 +1   -1.7432036 +1    14     3     1
  H(HETATM   24  H   HET B   2)   1.10338024 +1   88.0989873 +1 -163.1434836 +1     2     1     3
 
 TIME=     0.14
  REACTANTS AND PRODUCTS SWAPPED AROUND
 *+*+*+*+*+*+*+*+*+*+*+*+*+*+*+*+*+*+*+*+*+*+*+*+*+*+*+*+*+*+*+*+*+*+*+*+*+*+*+*+
            BAR SHORTENED BY       1.000 PERCENT
 GRADIENT CRITERION IN FLEPO =     8.809


          FOR POINT   20 SECOND STRUCTURE
 DISTANCE A - B     10.650043
 HEAT               -2.436412
 GRADIENT NORM      16.440309
 DIRECTION COSINE    0.210635
 eps=78.4 HTML(nores)
 Locate the transition state for the reaction [CHO-CH-CH3]^(-) + [C5H5N-CH3]^(+) => CHO-CH=CH2 + C5H6N-CH3

  O(HETATM    1  O   HET A   1)   0.00000000 +1    0.0000000 +1    0.0000000 +1
  C(HETATM    2  C   HET B   2)   4.11243865 +1    0.0000000 +1    0.0000000 +1     1     0     0
  C(HETATM    3  C   HET C   1)   1.21748477 +1   82.9826577 +1    0.0000000 +1     1     2     0
  C(HETATM    4  C1  HET D   2)   2.40300167 +1   68.9624880 +1   45.0178305 +1     2     1     3
  N(HETATM    5  N   HET D   2)   1.41319612 +1   70.6305975 +1   79.0408275 +1     2     1     3
  C(HETATM    6  C2  HET D   2)   1.35004312 +1   91.6699847 +1 -105.9931750 +1     4     2     1
  C(HETATM    7  C3  HET D   2)   1.49742502 +1  122.1180134 +1   -3.1340709 +1     6     4     2
  C(HETATM    8  C4  HET D   2)   1.34533055 +1  106.7342505 +1  -40.1352920 +1     2     1     3
  H(HETATM    9  H   HET E   1)   1.09902127 +1  119.3097136 +1 -106.7482403 +1     3     1     2
  C(HETATM   10  C   HET F   2)   1.47445292 +1  115.9937343 +1   59.5075997 +1     5     2     1
  H(HETATM   11 1H1  HET K   1)   1.11619450 +1  110.7405087 +1  124.7243918 +1     7     6     4
  H(HETATM   12 2H1  HET K   1)   2.65881139 +1   57.4110986 +1   82.8751873 +1     1     2     3
  H(HETATM   13 3H1  HET K   1)   1.80853031 +1  121.5701389 +1 -110.4521209 +1    12     1     2
  H(HETATM   14  H2  HET K   1)   2.17585841 +1  146.4988090 +1   91.2187519 +1     3     1     2
  H(HETATM   15  H1  HET D   2)   1.09332372 +1  145.6402575 +1   67.9096214 +1     4     2     1
  H(HETATM   16  H2  HET D   2)   1.08340075 +1  122.4324234 +1  176.7441370 +1     6     4     2
  H(HETATM   17  H3  HET D   2)   1.11298704 +1  111.3355386 +1 -119.3550359 +1     7     6     4
  H(HETATM   18  H4  HET D   2)   1.08329261 +1  121.7028360 +1 -108.2868138 +1     8     2     1
  H(HETATM   19 1H   HET F   2)   1.10430042 +1  110.0876009 +1  156.4694432 +1    10     5     2
  H(HETATM   20 2H   HET F   2)   1.10395800 +1  110.7233450 +1   37.3443767 +1    10     5     2
  H(HETATM   21 3H   HET F   2)   1.10411016 +1  113.1005292 +1  -83.8164843 +1    10     5     2
  C(HETATM   22  C1  HET K   1)   1.08557507 +1   88.3154310 +1 -104.9644249 +1    12     1     2
  C(HETATM   23  C2  HET K   1)   1.09174923 +1   37.3843539 +1  -31.6618674 +1    14     3     1
  H(HETATM   24  H   HET B   2)   1.09483232 +1   96.7123793 +1 -166.3750008 +1     2     1     3
 
 *+*+*+*+*+*+*+*+*+*+*+*+*+*+*+*+*+*+*+*+*+*+*+*+*+*+*+*+*+*+*+*+*+*+*+*+*+*+*+*+
            BAR SHORTENED BY       1.000 PERCENT
 GRADIENT CRITERION IN FLEPO =    10.000


          FOR POINT   21 SECOND STRUCTURE
 DISTANCE A - B     10.543543
 HEAT               -2.445645
 GRADIENT NORM      17.028780
 DIRECTION COSINE    0.338960
 eps=78.4 HTML(nores)
 Locate the transition state for the reaction [CHO-CH-CH3]^(-) + [C5H5N-CH3]^(+) => CHO-CH=CH2 + C5H6N-CH3

  O(HETATM    1  O   HET A   1)   0.00000000 +1    0.0000000 +1    0.0000000 +1
  C(HETATM    2  C   HET B   2)   4.10785992 +1    0.0000000 +1    0.0000000 +1     1     0     0
  C(HETATM    3  C   HET C   1)   1.21605608 +1   83.1950795 +1    0.0000000 +1     1     2     0
  C(HETATM    4  C1  HET D   2)   2.40370687 +1   68.9878102 +1   44.9711127 +1     2     1     3
  N(HETATM    5  N   HET D   2)   1.41183843 +1   70.7574538 +1   78.9593169 +1     2     1     3
  C(HETATM    6  C2  HET D   2)   1.34876430 +1   91.4883220 +1 -106.5405339 +1     4     2     1
  C(HETATM    7  C3  HET D   2)   1.49512626 +1  122.4348201 +1   -2.0349613 +1     6     4     2
  C(HETATM    8  C4  HET D   2)   1.34340639 +1  106.7080837 +1  -40.1043595 +1     2     1     3
  H(HETATM    9  H   HET E   1)   1.10121656 +1  119.5189438 +1 -106.1921751 +1     3     1     2
  C(HETATM   10  C   HET F   2)   1.47370669 +1  116.0144284 +1   59.0543860 +1     5     2     1
  H(HETATM   11 1H1  HET K   1)   1.11429909 +1  110.8597212 +1  123.7513213 +1     7     6     4
  H(HETATM   12 2H1  HET K   1)   2.62967136 +1   58.2991820 +1   82.8933950 +1     1     2     3
  H(HETATM   13 3H1  HET K   1)   1.81429509 +1  122.7373418 +1 -108.7014544 +1    12     1     2
  H(HETATM   14  H2  HET K   1)   2.17616569 +1  146.5504576 +1   90.8293895 +1     3     1     2
  H(HETATM   15  H1  HET D   2)   1.09523536 +1  145.4206518 +1   67.9431448 +1     4     2     1
  H(HETATM   16  H2  HET D   2)   1.08705558 +1  121.5131025 +1  176.0287269 +1     6     4     2
  H(HETATM   17  H3  HET D   2)   1.11495662 +1  109.6971223 +1 -120.1572296 +1     7     6     4
  H(HETATM   18  H4  HET D   2)   1.08564674 +1  121.6280237 +1 -108.4810466 +1     8     2     1
  H(HETATM   19 1H   HET F   2)   1.10569295 +1  109.8549982 +1  156.2332582 +1    10     5     2
  H(HETATM   20 2H   HET F   2)   1.09600225 +1  109.9203762 +1   38.1880201 +1    10     5     2
  H(HETATM   21 3H   HET F   2)   1.10362653 +1  113.4805556 +1  -82.7610582 +1    10     5     2
  C(HETATM   22  C1  HET K   1)   1.07904877 +1   90.0612371 +1 -102.9190631 +1    12     1     2
  C(HETATM   23  C2  HET K   1)   1.09134470 +1   37.4337200 +1  -31.3409260 +1    14     3     1
  H(HETATM   24  H   HET B   2)   1.09244201 +1   94.6305279 +1 -166.7311123 +1     2     1     3
 
 *+*+*+*+*+*+*+*+*+*+*+*+*+*+*+*+*+*+*+*+*+*+*+*+*+*+*+*+*+*+*+*+*+*+*+*+*+*+*+*+
            BAR SHORTENED BY       1.000 PERCENT
 GRADIENT CRITERION IN FLEPO =    10.000


          FOR POINT   22 SECOND STRUCTURE
 DISTANCE A - B     10.438107
 HEAT               -2.461500
 GRADIENT NORM      15.398968
 DIRECTION COSINE    0.107866
 eps=78.4 HTML(nores)
 Locate the transition state for the reaction [CHO-CH-CH3]^(-) + [C5H5N-CH3]^(+) => CHO-CH=CH2 + C5H6N-CH3

  O(HETATM    1  O   HET A   1)   0.00000000 +1    0.0000000 +1    0.0000000 +1
  C(HETATM    2  C   HET B   2)   4.10399565 +1    0.0000000 +1    0.0000000 +1     1     0     0
  C(HETATM    3  C   HET C   1)   1.21319771 +1   83.4183597 +1    0.0000000 +1     1     2     0
  C(HETATM    4  C1  HET D   2)   2.40528503 +1   69.0063216 +1   44.8910985 +1     2     1     3
  N(HETATM    5  N   HET D   2)   1.41426239 +1   31.8209989 +1   86.7594038 +1     4     2     1
  C(HETATM    6  C2  HET D   2)   1.34324957 +1   91.6082665 +1 -106.5411079 +1     4     2     1
  C(HETATM    7  C3  HET D   2)   1.49734030 +1  122.4990315 +1   -1.9844743 +1     6     4     2
  C(HETATM    8  C4  HET D   2)   1.34361929 +1  106.7482513 +1  -40.1147166 +1     2     1     3
  H(HETATM    9  H   HET E   1)   1.10104084 +1  119.5252600 +1 -106.0020424 +1     3     1     2
  C(HETATM   10  C   HET F   2)   1.47371014 +1  115.2322075 +1 -140.7380511 +1     5     4     2
  H(HETATM   11 1H1  HET K   1)   1.11888618 +1  110.9018378 +1  123.3713552 +1     7     6     4
  H(HETATM   12 2H1  HET K   1)   2.63396067 +1   58.2414690 +1   82.9294491 +1     1     2     3
  H(HETATM   13 3H1  HET K   1)   1.81552270 +1  122.5207033 +1 -108.9709119 +1    12     1     2
  H(HETATM   14  H2  HET K   1)   2.18244224 +1  146.7636957 +1   90.3106308 +1     3     1     2
  H(HETATM   15  H1  HET D   2)   1.09169768 +1  145.5125494 +1   68.5295382 +1     4     2     1
  H(HETATM   16  H2  HET D   2)   1.08165397 +1  122.3990320 +1  178.1868019 +1     6     4     2
  H(HETATM   17  H3  HET D   2)   1.11551040 +1  109.8821990 +1 -120.3836090 +1     7     6     4
  H(HETATM   18  H4  HET D   2)   1.08354805 +1  121.8119469 +1 -108.7640113 +1     8     2     1
  H(HETATM   19 1H   HET F   2)   1.10686511 +1  109.2388302 +1  -62.7424222 +1    10     5     4
  H(HETATM   20 2H   HET F   2)   1.10195096 +1  109.8108074 +1  178.9189992 +1    10     5     4
  H(HETATM   21 3H   HET F   2)   1.10269541 +1  112.9870794 +1   57.9290392 +1    10     5     4
  C(HETATM   22  C1  HET K   1)   1.08427589 +1   89.6814377 +1 -103.1794741 +1    12     1     2
  C(HETATM   23  C2  HET K   1)   1.09318634 +1   37.4912345 +1  -30.6373416 +1    14     3     1
  H(HETATM   24  H   HET B   2)   1.09633973 +1   94.7906806 +1 -166.7100984 +1     2     1     3
 
 TIME=     0.34
  REACTANTS AND PRODUCTS SWAPPED AROUND
 *+*+*+*+*+*+*+*+*+*+*+*+*+*+*+*+*+*+*+*+*+*+*+*+*+*+*+*+*+*+*+*+*+*+*+*+*+*+*+*+
            BAR SHORTENED BY       0.000 PERCENT
 GRADIENT CRITERION IN FLEPO =    10.000


          FOR POINT   23 FIRST  STRUCTURE
 DISTANCE A - B     10.438107
 HEAT               -0.781743
 GRADIENT NORM       9.648687
 DIRECTION COSINE    0.051835
 eps=78.4 HTML(nores)
 Locate the transition state for the reaction [CHO-CH-CH3]^(-) + [C5H5N-CH3]^(+) => CHO-CH=CH2 + C5H6N-CH3

  O(HETATM    1  O   HET A   1)   0.00000000 +1    0.0000000 +1    0.0000000 +1
  C(HETATM    2  C   HET B   2)   3.59239845 +1    0.0000000 +1    0.0000000 +1     1     0     0
  C(HETATM    3  C   HET C   1)   1.26899002 +1   90.9550686 +1    0.0000000 +1     1     2     0
  C(HETATM    4  C1  HET D   2)   2.36741374 +1   76.8300077 +1   45.6151343 +1     2     1     3
  N(HETATM    5  N   HET D   2)   1.36174979 +1   66.7955674 +1   75.0449078 +1     2     1     3
  C(HETATM    6  C2  HET D   2)   1.39314885 +1   90.6092311 +1 -114.3200033 +1     4     2     1
  C(HETATM    7  C3  HET D   2)   1.39434743 +1  119.9402954 +1   -0.5590833 +1     6     4     2
  C(HETATM    8  C4  HET D   2)   1.39323775 +1  118.9350933 +1    0.8943719 +1     7     6     4
  H(HETATM    9  H   HET E   1)   1.10284194 +1  113.0872634 +1 -115.3328589 +1     3     1     2
  C(HETATM   10  C   HET F   2)   1.46495055 +1  119.3177092 +1   71.5516530 +1     5     2     1
  H(HETATM   11 1H1  HET K   1)   2.81968319 +1   80.2051217 +1  102.5575556 +1     8     7     6
  H(HETATM   12 2H1  HET K   1)   1.76141546 +1   89.0561245 +1 -144.0277471 +1    11     8     7
  H(HETATM   13 3H1  HET K   1)   1.77209029 +1   60.2524991 +1  179.9999530 +1    12    11     8
  H(HETATM   14  H2  HET K   1)   2.12295024 +1  152.3969402 +1   66.7662836 +1     3     1     2
  H(HETATM   15  H1  HET D   2)   1.09772487 +1  147.6425991 +1   64.7785927 +1     4     2     1
  H(HETATM   16  H2  HET D   2)   1.09489809 +1  119.4601707 +1  178.7879285 +1     6     4     2
  H(HETATM   17  H3  HET D   2)   1.09796110 +1  120.7438737 +1 -179.7408852 +1     7     6     4
  H(HETATM   18  H4  HET D   2)   1.09721720 +1  120.8476960 +1  179.5860174 +1     8     7     6
  H(HETATM   19 1H   HET F   2)   1.10713162 +1  112.0636089 +1  154.9462236 +1    10     5     2
  H(HETATM   20 2H   HET F   2)   1.10817211 +1  111.7076721 +1   34.6109298 +1    10     5     2
  H(HETATM   21 3H   HET F   2)   1.11796550 +1  109.7583698 +1  -85.2627653 +1    10     5     2
  C(HETATM   22  C1  HET K   1)   1.09305231 +1   36.6771678 +1  141.9303154 +1    12    11     8
  C(HETATM   23  C2  HET K   1)   1.07244748 +1   33.4749531 +1   -1.1222620 +1    14     3     1
  H(HETATM   24  H   HET B   2)   1.10330090 +1   88.2640935 +1 -163.1886444 +1     2     1     3
 
 TIME=     0.11
  REACTANTS AND PRODUCTS SWAPPED AROUND
 *+*+*+*+*+*+*+*+*+*+*+*+*+*+*+*+*+*+*+*+*+*+*+*+*+*+*+*+*+*+*+*+*+*+*+*+*+*+*+*+
            BAR SHORTENED BY       1.000 PERCENT
 GRADIENT CRITERION IN FLEPO =     6.649


          FOR POINT   24 SECOND STRUCTURE
 DISTANCE A - B     10.333726
 HEAT               -2.447429
 GRADIENT NORM      14.987588
 DIRECTION COSINE    0.099380
 eps=78.4 HTML(nores)
 Locate the transition state for the reaction [CHO-CH-CH3]^(-) + [C5H5N-CH3]^(+) => CHO-CH=CH2 + C5H6N-CH3

  O(HETATM    1  O   HET A   1)   0.00000000 +1    0.0000000 +1    0.0000000 +1
  C(HETATM    2  C   HET B   2)   4.10306065 +1    0.0000000 +1    0.0000000 +1     1     0     0
  C(HETATM    3  C   HET C   1)   1.21799611 +1   83.3485288 +1    0.0000000 +1     1     2     0
  C(HETATM    4  C1  HET D   2)   2.40761288 +1   69.1485206 +1   44.8415420 +1     2     1     3
  N(HETATM    5  N   HET D   2)   1.41240162 +1   70.5328030 +1   78.5513633 +1     2     1     3
  C(HETATM    6  C2  HET D   2)   1.34458039 +1   91.5499965 +1 -106.5148265 +1     4     2     1
  C(HETATM    7  C3  HET D   2)   1.49530549 +1  122.5961479 +1   -1.8553311 +1     6     4     2
  C(HETATM    8  C4  HET D   2)   1.34454869 +1  106.6037864 +1  -40.2353056 +1     2     1     3
  H(HETATM    9  H   HET E   1)   1.10355466 +1  119.3305661 +1 -106.0292280 +1     3     1     2
  C(HETATM   10  C   HET F   2)   1.47463177 +1  115.9851887 +1   59.4465734 +1     5     2     1
  H(HETATM   11 1H1  HET K   1)   1.12470704 +1  111.0646032 +1  122.5696291 +1     7     6     4
  H(HETATM   12 2H1  HET K   1)   2.63229340 +1   58.2013207 +1   82.8300748 +1     1     2     3
  H(HETATM   13 3H1  HET K   1)   1.81712730 +1  122.4358756 +1 -109.2658441 +1    12     1     2
  H(HETATM   14  H2  HET K   1)   2.17626831 +1  146.9053519 +1   90.3478705 +1     3     1     2
[...]
  C(HETATM    3  C   HET C   1)   1.23790217 +1  102.6072008 +1    0.0000000 +1     1     2     0
  C(HETATM    4  C1  HET D   2)   2.39496307 +1   68.3205475 +1   40.9810830 +1     2     1     3
  N(HETATM    5  N   HET D   2)   1.38085599 +1   29.9354719 +1   71.3936497 +1     4     2     1
  C(HETATM    6  C2  HET D   2)   1.36723517 +1   90.8797050 +1 -104.2794652 +1     4     2     1
  C(HETATM    7  C3  HET D   2)   1.44499489 +1  120.0060228 +1    9.9077449 +1     6     4     2
  C(HETATM    8  C4  HET D   2)   1.36453633 +1  104.4329787 +1  -44.3352431 +1     2     1     3
  H(HETATM    9  H   HET E   1)   1.10168801 +1  116.0818615 +1 -121.0838680 +1     3     1     2
  C(HETATM   10  C   HET F   2)   1.46412879 +1  119.6589921 +1 -170.5505154 +1     5     4     2
  H(HETATM   11 1H1  HET K   1)   1.42843467 +1  104.1075214 +1   90.0987129 +1     7     6     4
  H(HETATM   12 2H1  HET K   1)   1.89033601 +1  130.4901416 +1 -104.7685986 +1    11     7     6
  H(HETATM   13 3H1  HET K   1)   1.81831358 +1   60.1250254 +1 -159.0665424 +1    12    11     7
  H(HETATM   14  H2  HET K   1)   2.14190342 +1  150.7302724 +1   67.8307700 +1     3     1     2
  H(HETATM   15  H1  HET D   2)   1.09891539 +1  146.0655278 +1   82.4462852 +1     4     2     1
  H(HETATM   16  H2  HET D   2)   1.08649281 +1  120.8538341 +1 -172.4181744 +1     6     4     2
  H(HETATM   17  H3  HET D   2)   1.09969517 +1  117.5306482 +1 -165.0286317 +1     7     6     4
  H(HETATM   18  H4  HET D   2)   1.08621210 +1  121.3111454 +1 -119.1147875 +1     8     2     1
  H(HETATM   19 1H   HET F   2)   1.10474202 +1  111.4382253 +1  -39.3541724 +1    10     5     4
  H(HETATM   20 2H   HET F   2)   1.10511883 +1  111.5131432 +1 -159.8319929 +1    10     5     4
  H(HETATM   21 3H   HET F   2)   1.11191462 +1  110.1244993 +1   80.5121154 +1    10     5     4
  C(HETATM   22  C1  HET K   1)   1.09115169 +1   33.7438670 +1  -55.6502802 +1    13    12    11
  C(HETATM   23  C2  HET K   1)   1.08092789 +1   35.5824144 +1  -13.4340909 +1    14     3     1
  H(HETATM   24  H   HET B   2)   1.09832916 +1  102.5562655 +1 -173.0884644 +1     2     1     3
 
 TIME=     0.05
  REACTANTS AND PRODUCTS SWAPPED AROUND
 *+*+*+*+*+*+*+*+*+*+*+*+*+*+*+*+*+*+*+*+*+*+*+*+*+*+*+*+*+*+*+*+*+*+*+*+*+*+*+*+
            BAR SHORTENED BY       1.000 PERCENT
 AT END OF STEPWISE ASCENT OF REACTION BARRIER

 -------------------------------------------------------------------------------
 eps=78.4 HTML(nores)
 Locate the transition state for the reaction [CHO-CH-CH3]^(-) + [C5H5N-CH3]^(+) => CHO-CH=CH2 + C5H6N-CH3



     TRANSITION STATE LOCATED USING THE "SADDLE" TECHNIQUE    
     SCF FIELD WAS ACHIEVED                                   


                              PM7 CALCULATION
                                                       MOPAC2016 (Version: 18.053W)
                                                       Thu Feb 22 16:13:52 2018
                                                       No. of days remaining = 174




          FINAL H.O.F PLUS STRESS =         33.89725 KCAL/MOL =     141.82611 KJ/MOL
          FINAL STRESS            =          0.00000 KCAL/MOL =       0.00000 KJ/MOL
          FINAL HEAT OF FORMATION =         33.89725 KCAL/MOL =     141.82611 KJ/MOL
          TOTAL DISTORTION        =          0.00028 Angstroms
          AVERAGE DISTORTION      =          0.00001 Angstroms per atom (all atoms)
          RMS DISTORTION          =          0.00002 Angstroms per atom (all atoms)
          VAN DER WAALS AREA      =        189.00 SQUARE ANGSTROMS


          TOTAL ENERGY            =      -1759.62264 EV
          ELECTRONIC ENERGY       =      -2746.45770 EV  POINT GROUP:     C1  
          CORE-CORE REPULSION     =        986.83506 EV
          DIELECTRIC ENERGY       =         -0.70654 EV
          COSMO AREA              =        189.00 SQUARE ANGSTROMS
          COSMO VOLUME            =        206.26 CUBIC ANGSTROMS

          GRADIENT NORM           =          7.63132
          IONIZATION POTENTIAL    =          7.401023 EV
          HOMO LUMO ENERGIES (EV) =         -7.401 -1.058
          NO. OF FILLED LEVELS    =         30
          MOLECULAR WEIGHT        =        151.2078

          MOLECULAR DIMENSIONS (Angstroms)

            Atom       Atom       Distance
            H    19    H    13     6.73936
            H     9    H    18     6.04278
            H    16    O     1     4.48361


          SCF CALCULATIONS        =       3865
 
          WALL-CLOCK TIME         =  1 MINUTE AND 22.945 SECONDS
          COMPUTATION TIME        =  5 MINUTES AND 30.613 SECONDS



       FINAL  POINT  AND  DERIVATIVES

   PARAMETER     ATOM    TYPE            VALUE       GRADIENT
      1          1  O    CARTESIAN X    -0.380363    -0.324022  KCAL/ANGSTROM
      2          1  O    CARTESIAN Y    -0.058272    -1.008090  KCAL/ANGSTROM
      3          1  O    CARTESIAN Z    -0.181244     0.118324  KCAL/ANGSTROM
      4          2  C    CARTESIAN X     3.242441    -0.398237  KCAL/ANGSTROM
      5          2  C    CARTESIAN Y    -0.397175     0.983353  KCAL/ANGSTROM
      6          2  C    CARTESIAN Z     0.037252     0.569576  KCAL/ANGSTROM
      7          3  C    CARTESIAN X    -0.546192    -0.412740  KCAL/ANGSTROM
      8          3  C    CARTESIAN Y     1.161209     0.039654  KCAL/ANGSTROM
      9          3  C    CARTESIAN Z    -0.047787     0.892508  KCAL/ANGSTROM
     10          4  C    CARTESIAN X     2.402676     1.051609  KCAL/ANGSTROM
     11          4  C    CARTESIAN Y     1.173863     0.277318  KCAL/ANGSTROM
     12          4  C    CARTESIAN Z     1.638014     0.599650  KCAL/ANGSTROM
     13          5  N    CARTESIAN X     2.546457     0.769907  KCAL/ANGSTROM
     14          5  N    CARTESIAN Y    -0.128043     0.520725  KCAL/ANGSTROM
     15          5  N    CARTESIAN Z     1.200858     0.505416  KCAL/ANGSTROM
     16          6  C    CARTESIAN X     2.853601     1.802255  KCAL/ANGSTROM
     17          6  C    CARTESIAN Y     2.218861     0.326326  KCAL/ANGSTROM
     18          6  C    CARTESIAN Z     0.880379     0.561873  KCAL/ANGSTROM
     19          7  C    CARTESIAN X     3.342204     1.239213  KCAL/ANGSTROM
     20          7  C    CARTESIAN Y     1.982560     0.781088  KCAL/ANGSTROM
     21          7  C    CARTESIAN Z    -0.458791     3.606888  KCAL/ANGSTROM
     22          8  C    CARTESIAN X     3.726182     1.584882  KCAL/ANGSTROM
     23          8  C    CARTESIAN Y     0.614688     0.559476  KCAL/ANGSTROM
     24          8  C    CARTESIAN Z    -0.740000     0.714901  KCAL/ANGSTROM
     25          9  H    CARTESIAN X    -1.176033     0.895240  KCAL/ANGSTROM
     26          9  H    CARTESIAN Y     1.474435     0.374463  KCAL/ANGSTROM
     27          9  H    CARTESIAN Z     0.800100     0.904520  KCAL/ANGSTROM
     28         10  C    CARTESIAN X     1.790129     0.746505  KCAL/ANGSTROM
     29         10  C    CARTESIAN Y    -1.198889     0.773920  KCAL/ANGSTROM
     30         10  C    CARTESIAN Z     1.852729    -0.024848  KCAL/ANGSTROM
     31         11  H    CARTESIAN X     2.182112     0.385486  KCAL/ANGSTROM
     32         11  H    CARTESIAN Y     2.117227     0.066825  KCAL/ANGSTROM
     33         11  H    CARTESIAN Z    -1.281472     0.257319  KCAL/ANGSTROM
     34         12  H    CARTESIAN X     1.127744    -0.586471  KCAL/ANGSTROM
     35         12  H    CARTESIAN Y     0.804582     0.101449  KCAL/ANGSTROM
     36         12  H    CARTESIAN Z    -2.140813    -0.163215  KCAL/ANGSTROM
     37         13  H    CARTESIAN X     1.089761    -0.663791  KCAL/ANGSTROM
     38         13  H    CARTESIAN Y     2.524634    -0.473669  KCAL/ANGSTROM
     39         13  H    CARTESIAN Z    -2.729229    -0.673537  KCAL/ANGSTROM
     40         14  H    CARTESIAN X    -0.337250     0.040418  KCAL/ANGSTROM
     41         14  H    CARTESIAN Y     3.165689     0.307319  KCAL/ANGSTROM
     42         14  H    CARTESIAN Z    -0.773106     0.180255  KCAL/ANGSTROM
     43         15  H    CARTESIAN X     1.941574     0.570884  KCAL/ANGSTROM
     44         15  H    CARTESIAN Y     1.310511     0.161318  KCAL/ANGSTROM
     45         15  H    CARTESIAN Z     2.626109     0.675931  KCAL/ANGSTROM
     46         16  H    CARTESIAN X     2.816070     0.946543  KCAL/ANGSTROM
     47         16  H    CARTESIAN Y     3.237247     0.459029  KCAL/ANGSTROM
     48         16  H    CARTESIAN Z     1.257153     1.168084  KCAL/ANGSTROM
     49         17  H    CARTESIAN X     3.921293     2.366771  KCAL/ANGSTROM
     50         17  H    CARTESIAN Y     2.785470     0.880709  KCAL/ANGSTROM
     51         17  H    CARTESIAN Z    -0.937666     1.165208  KCAL/ANGSTROM
     52         18  H    CARTESIAN X     4.341367     0.206261  KCAL/ANGSTROM
     53         18  H    CARTESIAN Y     0.412018     0.549305  KCAL/ANGSTROM
     54         18  H    CARTESIAN Z    -1.611974     0.037717  KCAL/ANGSTROM
     55         19  H    CARTESIAN X     1.741100    -0.141089  KCAL/ANGSTROM
     56         19  H    CARTESIAN Y    -1.050592     0.292250  KCAL/ANGSTROM
     57         19  H    CARTESIAN Z     2.946374    -0.009160  KCAL/ANGSTROM
     58         20  H    CARTESIAN X     2.245992    -0.102193  KCAL/ANGSTROM
     59         20  H    CARTESIAN Y    -2.188254     0.338211  KCAL/ANGSTROM
     60         20  H    CARTESIAN Z     1.666630     0.075944  KCAL/ANGSTROM
     61         21  H    CARTESIAN X     0.749450    -0.160985  KCAL/ANGSTROM
     62         21  H    CARTESIAN Y    -1.224790     0.761625  KCAL/ANGSTROM
     63         21  H    CARTESIAN Z     1.461991    -0.293192  KCAL/ANGSTROM
     64         22  C    CARTESIAN X     0.955003    -1.990418  KCAL/ANGSTROM
     65         22  C    CARTESIAN Y     1.853073    -0.473559  KCAL/ANGSTROM
     66         22  C    CARTESIAN Z    -1.879844    -2.186662  KCAL/ANGSTROM
     67         23  C    CARTESIAN X    -0.019073    -0.639867  KCAL/ANGSTROM
     68         23  C    CARTESIAN Y     2.142271    -0.734195  KCAL/ANGSTROM
     69         23  C    CARTESIAN Z    -0.913729    -1.417671  KCAL/ANGSTROM
     70         24  H    CARTESIAN X     3.398407    -0.643188  KCAL/ANGSTROM
     71         24  H    CARTESIAN Y    -1.456336     0.331583  KCAL/ANGSTROM
     72         24  H    CARTESIAN Z    -0.208070    -0.598328  KCAL/ANGSTROM




   ATOM                 CHEMICAL                   X               Y               Z
  NUMBER                 SYMBOL               (ANGSTROMS)     (ANGSTROMS)     (ANGSTROMS)
 
     1       O(HETATM    1  O   HET A   1)   -0.38036349  *  -0.05827152  *  -0.18124365  *
     2       C(HETATM    2  C   HET B   2)    3.24244107  *  -0.39717541  *   0.03725241  *
     3       C(HETATM    3  C   HET C   1)   -0.54619193  *   1.16120905  *  -0.04778679  *
     4       C(HETATM    4  C1  HET D   2)    2.40267582  *   1.17386280  *   1.63801355  *
     5       N(HETATM    5  N   HET D   2)    2.54645653  *  -0.12804291  *   1.20085759  *
     6       C(HETATM    6  C2  HET D   2)    2.85360126  *   2.21886125  *   0.88037880  *
     7       C(HETATM    7  C3  HET D   2)    3.34220351  *   1.98256032  *  -0.45879061  *
     8       C(HETATM    8  C4  HET D   2)    3.72618247  *   0.61468828  *  -0.74000017  *
     9       H(HETATM    9  H   HET E   1)   -1.17603251  *   1.47443469  *   0.80009985  *
    10       C(HETATM   10  C   HET F   2)    1.79012911  *  -1.19888925  *   1.85272877  *
    11       H(HETATM   11 1H1  HET K   1)    2.18211204  *   2.11722652  *  -1.28147170  *
    12       H(HETATM   12 2H1  HET K   1)    1.12774367  *   0.80458181  *  -2.14081286  *
    13       H(HETATM   13 3H1  HET K   1)    1.08976053  *   2.52463363  *  -2.72922851  *
    14       H(HETATM   14  H2  HET K   1)   -0.33725014  *   3.16568859  *  -0.77310649  *
    15       H(HETATM   15  H1  HET D   2)    1.94157351  *   1.31051091  *   2.62610853  *
    16       H(HETATM   16  H2  HET D   2)    2.81607013  *   3.23724663  *   1.25715262  *
    17       H(HETATM   17  H3  HET D   2)    3.92129336  *   2.78546969  *  -0.93766576  *
    18       H(HETATM   18  H4  HET D   2)    4.34136662  *   0.41201811  *  -1.61197386  *
    19       H(HETATM   19 1H   HET F   2)    1.74109983  *  -1.05059209  *   2.94637365  *
    20       H(HETATM   20 2H   HET F   2)    2.24599175  *  -2.18825425  *   1.66662964  *
    21       H(HETATM   21 3H   HET F   2)    0.74945028  *  -1.22479016  *   1.46199081  *
    22       C(HETATM   22  C1  HET K   1)    0.95500301  *   1.85307260  *  -1.87984360  *
    23       C(HETATM   23  C2  HET K   1)   -0.01907266  *   2.14227074  *  -0.91372907  *
    24       H(HETATM   24  H   HET B   2)    3.39840733  *  -1.45633556  *  -0.20807040  *

                             CARTESIAN COORDINATES

   1    O       -0.380363492    -0.058271517    -0.181243647
   2    C        3.242441075    -0.397175407     0.037252407
   3    C       -0.546191934     1.161209047    -0.047786785
   4    C        2.402675815     1.173862798     1.638013554
   5    N        2.546456530    -0.128042908     1.200857595
   6    C        2.853601259     2.218861255     0.880378803
   7    C        3.342203507     1.982560324    -0.458790615
   8    C        3.726182475     0.614688281    -0.740000173
   9    H       -1.176032509     1.474434694     0.800099846
  10    C        1.790129110    -1.198889253     1.852728770
  11    H        2.182112036     2.117226520    -1.281471698
  12    H        1.127743669     0.804581811    -2.140812862
  13    H        1.089760531     2.524633633    -2.729228509
  14    H       -0.337250136     3.165688591    -0.773106491
  15    H        1.941573506     1.310510912     2.626108525
  16    H        2.816070128     3.237246633     1.257152619
  17    H        3.921293355     2.785469689    -0.937665764
  18    H        4.341366624     0.412018111    -1.611973861
  19    H        1.741099832    -1.050592092     2.946373653
  20    H        2.245991752    -2.188254252     1.666629636
  21    H        0.749450283    -1.224790156     1.461990812
  22    C        0.955003007     1.853072604    -1.879843599
  23    C       -0.019072662     2.142270743    -0.913729067
  24    H        3.398407335    -1.456335560    -0.208070404


           Empirical Formula: C9 H13 N O  =    24 atoms



      MOLECULAR POINT GROUP   :   C1  


                  EIGENVALUES  
 -37.48148 -29.57315 -29.16064 -26.67369 -26.62376 -24.79117 -23.12188 -22.30652
 -22.04128 -18.36345 -18.22445 -16.75104 -16.68866 -16.44067 -16.05068 -15.10232
 -14.86332 -14.47340 -14.26965 -13.71497 -13.58063 -13.29768 -12.71001 -12.46686
 -12.25078 -12.18224 -10.57209  -9.92974  -9.73651  -7.40102  -1.05796   0.04445
   1.32684   1.65243   2.00075   3.92688   3.94862   4.43939   4.70293   4.74419
   4.92144   4.98794   5.07406   5.21663   5.35827   5.41139   5.58837   5.59388
   5.79023   5.84284   5.94951   6.10060   6.17446   6.20927   6.22649   6.50188
   6.92714


              NET ATOMIC CHARGES AND DIPOLE CONTRIBUTIONS

  ATOM NO.                 TYPE                        CHARGE      No. of ELECS.   s-Pop       p-Pop       
    1          O(HETATM    1  O   HET A   1)          -0.734224        6.7342     1.87927     4.85495
    2          C(HETATM    2  C   HET B   2)           0.061537        3.9385     1.09307     2.84540
    3          C(HETATM    3  C   HET C   1)           0.403011        3.5970     1.11321     2.48378
    4          C(HETATM    4  C1  HET D   2)           0.069857        3.9301     1.09496     2.83518
    5          N(HETATM    5  N   HET D   2)          -0.247215        5.2472     1.51446     3.73275
    6          C(HETATM    6  C2  HET D   2)          -0.311411        4.3114     1.07760     3.23381
    7          C(HETATM    7  C3  HET D   2)          -0.052337        4.0523     1.08369     2.96865
    8          C(HETATM    8  C4  HET D   2)          -0.323751        4.3238     1.07794     3.24581
    9          H(HETATM    9  H   HET E   1)           0.098454        0.9015     0.90155
   10          C(HETATM   10  C   HET F   2)          -0.271888        4.2719     1.06798     3.20391
   11          H(HETATM   11 1H1  HET K   1)           0.116751        0.8832     0.88325
   12          H(HETATM   12 2H1  HET K   1)           0.148866        0.8511     0.85113
   13          H(HETATM   13 3H1  HET K   1)           0.145661        0.8543     0.85434
   14          H(HETATM   14  H2  HET K   1)           0.156906        0.8431     0.84309
   15          H(HETATM   15  H1  HET D   2)           0.189029        0.8110     0.81097
   16          H(HETATM   16  H2  HET D   2)           0.179531        0.8205     0.82047
   17          H(HETATM   17  H3  HET D   2)           0.167883        0.8321     0.83212
   18          H(HETATM   18  H4  HET D   2)           0.181349        0.8187     0.81865
   19          H(HETATM   19 1H   HET F   2)           0.174799        0.8252     0.82520
   20          H(HETATM   20 2H   HET F   2)           0.175767        0.8242     0.82423
   21          H(HETATM   21 3H   HET F   2)           0.184404        0.8156     0.81560
   22          C(HETATM   22  C1  HET K   1)          -0.157043        4.1570     1.09237     3.06467
   23          C(HETATM   23  C2  HET K   1)          -0.545060        4.5451     1.06296     3.48210
   24          H(HETATM   24  H   HET B   2)           0.189123        0.8109     0.81088

          NET CHARGE ON RESIDUES

      Residue         Charge  Anion or
                              Cation?
      HET A   1       -0.734  ANION
      HET B   2       +0.251
      HET C   1       +0.501  CATION
      HET D   2       -0.147
      HET F   2       +0.263
      HET K   1       -0.134
 


                   No Salt Bridges Found


 DIPOLE           X         Y         Z       TOTAL
 POINT-CHG.     5.340     0.729     2.953     6.145
 HYBRID         0.154    -0.292    -0.024     0.331
 SUM            5.494     0.437     2.929     6.241


          ATOMIC ORBITAL ELECTRON POPULATIONS

                   Atom                  s        px        py        pz   
   O(HETATM    1  O   HET A   1)   1.87927   1.69910   1.32955   1.82630
   C(HETATM    2  C   HET B   2)   1.09307   0.91710   1.07656   0.85174
   C(HETATM    3  C   HET C   1)   1.11321   0.78102   0.82097   0.88178
   C(HETATM    4  C1  HET D   2)   1.09496   0.95951   0.83612   1.03956
   N(HETATM    5  N   HET D   2)   1.51446   1.37863   1.11237   1.24175
   C(HETATM    6  C2  HET D   2)   1.07760   1.12788   1.08075   1.02518
   C(HETATM    7  C3  HET D   2)   1.08369   0.96406   1.03279   0.97180
   C(HETATM    8  C4  HET D   2)   1.07794   1.14231   0.99144   1.11207
   H(HETATM    9  H   HET E   1)   0.90155
   C(HETATM   10  C   HET F   2)   1.06798   1.09820   0.98606   1.11964
   H(HETATM   11 1H1  HET K   1)   0.88325
   H(HETATM   12 2H1  HET K   1)   0.85113
   H(HETATM   13 3H1  HET K   1)   0.85434
   H(HETATM   14  H2  HET K   1)   0.84309
   H(HETATM   15  H1  HET D   2)   0.81097
   H(HETATM   16  H2  HET D   2)   0.82047
   H(HETATM   17  H3  HET D   2)   0.83212
   H(HETATM   18  H4  HET D   2)   0.81865
   H(HETATM   19 1H   HET F   2)   0.82520
   H(HETATM   20 2H   HET F   2)   0.82423
   H(HETATM   21 3H   HET F   2)   0.81560
   C(HETATM   22  C1  HET K   1)   1.09237   0.91352   1.13258   1.01857
   C(HETATM   23  C2  HET K   1)   1.06296   1.20792   1.10398   1.17019
   H(HETATM   24  H   HET B   2)   0.81088

 **********************
 *                    *
 * JOB ENDED NORMALLY *
 *                    *
 **********************



 TOTAL JOB TIME:            82.99 SECONDS

 == MOPAC DONE ==
