 *******************************************************************************
 ** Site#: 37037        For non-commercial use only           Version 21.153W **
 *******************************************************************************
 ** Cite this program as: MOPAC2016, Version: 21.153W, James J. P. Stewart,   **
 ** Stewart Computational Chemistry, web: HTTP://OpenMOPAC.net. Days left: 364**
 *******************************************************************************
 **                                                                           **
 **                                MOPAC2016                                  **
 **                                                                           **
 *******************************************************************************

                              PM7 CALCULATION RESULTS

 *******************************************************************************
 *  CALCULATION DONE:                                Thu Jun  3 15:16:58 2021  *
 *  SYMMETRY   - SYMMETRY CONDITIONS TO BE IMPOSED
 *
 *
 *
 *                 CHARGE ON SYSTEM = -1
 *
 *
 *
 *  EPS=78.4   - USE ANDREAS KLAMT'S COSMO IMPLICIT SOLVATION MODEL
 *  T=         - A TIME OF 172800.0 SECONDS REQUESTED
 *  DUMP=N     - RESTART FILE WRITTEN EVERY 7200.0 SECONDS REQUESTED
 *******************************************************************************



                    PARAMETER DEPENDENCE DATA

        REFERENCE ATOM      FUNCTION NO.    DEPENDENT ATOM(S)
            5                  1               6

             DESCRIPTIONS OF THE FUNCTIONS USED
   1      BOND LENGTH    IS SET EQUAL TO THE REFERENCE BOND LENGTH   
 
 charge=-1 eps=78.4 charge=-1 symmetry
 Transition state for CH3Cl --- Cl(-) <=> Cl(-) --- CH3Cl

  ATOM    CHEMICAL      BOND LENGTH      BOND ANGLE     TWIST ANGLE 
 NUMBER    SYMBOL       (ANGSTROMS)      (DEGREES)       (DEGREES) 
   (I)                     NA:I           NB:NA:I       NC:NB:NA:I       NA    NB    NC 
     1       C          0.00000000  *    0.0000000  *    0.0000000  *     0     0     0
     2       H          1.00000000  *    0.0000000  *    0.0000000  *     1     0     0
     3       H          1.00000000  *  120.0000000  *    0.0000000  *     1     2     0
     4       H          1.00000000  *  120.0000000  *  180.0000000  *     1     2     3
     5      Cl          2.00000000  *   90.0000000  *  -90.0000000  *     1     2     3
     6      Cl          2.00000000      90.0000000  *   90.0000000  *     1     2     3
 


          CARTESIAN COORDINATES 

    NO.       ATOM           X           Y           Z

     1         C          0.0000      0.0000      0.0000
     2         H          1.0000      0.0000      0.0000
     3         H         -0.5000      0.8660      0.0000
     4         H         -0.5000     -0.8660     -0.0000
     5        Cl          0.0000      0.0000      2.0000
     6        Cl          0.0000      0.0000     -2.0000

 General Reference for PM7:
 "Optimization of Parameters for Semiempirical Methods VI: More Modifications to the 
 NDDO Approximations and Re-optimization of Parameters", J. J. P. Stewart, J. Mol. Mod., 1:32, 19 (2013)
 https://link.springer.com/article/10.1007/s00894-012-1667-x

           Empirical Formula: C H3 Cl2  =     6 atoms



      MOLECULAR POINT GROUP   :   D3h 


      RHF CALCULATION, NO. OF DOUBLY OCCUPIED LEVELS = 11


          Geometry optimization using EF

          DIAGONAL MATRIX USED AS START HESSIAN

 CYCLE:     1 TIME:   0.000 TIME LEFT:  2.00D  GRAD.:   164.250 HEAT: -125.6261
 CYCLE:     2 TIME:   0.031 TIME LEFT:  2.00D  GRAD.:    40.734 HEAT: -141.9595
 CYCLE:     3 TIME:   0.094 TIME LEFT:  2.00D  GRAD.:    10.276 HEAT: -143.3218
 CYCLE:     4 TIME:   0.016 TIME LEFT:  2.00D  GRAD.:     3.444 HEAT: -143.4382
 CYCLE:     5 TIME:   0.031 TIME LEFT:  2.00D  GRAD.:     1.434 HEAT: -143.4533
 CYCLE:     6 TIME:   0.016 TIME LEFT:  2.00D  GRAD.:     0.314 HEAT: -143.4563

     GRADIENT =  0.31374 IS LESS THAN CUTOFF =  1.00000



 -------------------------------------------------------------------------------
 charge=-1 eps=78.4 charge=-1 symmetry
 Transition state for CH3Cl --- Cl(-) <=> Cl(-) --- CH3Cl



     GEOMETRY OPTIMISED USING EIGENVECTOR FOLLOWING (EF).     
     SCF FIELD WAS ACHIEVED                                   


                              PM7 CALCULATION
                                                       MOPAC2016 (Version: 21.153W)
                                                       Thu Jun  3 15:16:58 2021
                                                       No. of days remaining = 364




          FINAL HEAT OF FORMATION =       -143.45632 KCAL/MOL =    -600.22125 KJ/MOL
          VAN DER WAALS AREA      =        108.98 SQUARE ANGSTROMS


          TOTAL ENERGY            =       -702.29338 EV
          ELECTRONIC ENERGY       =       -445.69790 EV  POINT GROUP:     D3h 
          CORE-CORE REPULSION     =       -256.59548 EV

          DIELECTRIC ENERGY       =         -2.72689 EV
          COSMO AREA              =        108.98 SQUARE ANGSTROMS
          COSMO VOLUME            =         92.00 CUBIC ANGSTROMS

          GRADIENT NORM           =          0.31374 = 0.12808 PER ATOM
          IONIZATION POTENTIAL    =         10.332405 EV
          HOMO LUMO ENERGIES (EV) =        -10.332 -0.200
          NO. OF FILLED LEVELS    =         11
          MOLECULAR WEIGHT        =         85.9407

          MOLECULAR DIMENSIONS (Angstroms)

            Atom       Atom       Distance
           Cl     6   Cl     5     4.37404
            H     3    H     4     1.88044
            H     3    H     2     1.62834


          SCF CALCULATIONS        =          8
 
          WALL-CLOCK TIME         =          0.234 SECONDS
          COMPUTATION TIME        =          0.109 SECONDS




  ATOM    CHEMICAL      BOND LENGTH      BOND ANGLE     TWIST ANGLE 
 NUMBER    SYMBOL       (ANGSTROMS)      (DEGREES)       (DEGREES) 
   (I)                     NA:I           NB:NA:I       NC:NB:NA:I       NA    NB    NC 
     1       C          0.00000001  *    0.0000000  *   -0.0000002  *     0     0     0
     2       H          1.08558084  *   -0.0000000  *   -0.0000000  *     1     0     0
     3       H          1.08567326  *  120.0002854  *   -0.0000000  *     1     2     0
     4       H          1.08559511  *  119.9926240  *  179.9442806  *     1     2     3
     5      Cl          2.18701887  *   89.9973549  *  -90.1018383  *     1     2     3
     6      Cl          2.18701887      89.9927602  *   89.9256813  *     1     2     3

                             CARTESIAN COORDINATES

   1    C        0.000000005     0.000000011    -0.000000184
   2    H        1.085580841     0.000000011    -0.000000184
   3    H       -0.542841309     0.940217930    -0.000000184
   4    H       -0.542676515    -0.940222359    -0.000914538
   5   Cl        0.000100970    -0.003887223     2.187015231
   6   Cl        0.000276355     0.002836804    -2.187017198


           Empirical Formula: C H3 Cl2  =     6 atoms



      MOLECULAR POINT GROUP   :   D3h 


                  EIGENVALUES  
 -26.75483 -25.40506 -23.80428 -15.09582 -15.09498 -12.79356 -11.19343 -11.19063
 -11.00300 -11.00035 -10.33240  -0.19960   5.13893   5.41044   5.41208  74.93675
  75.13732  75.13739  75.73443  75.85542  75.85548  76.07482  76.07482  76.24902
  76.24903


              NET ATOMIC CHARGES AND DIPOLE CONTRIBUTIONS

  ATOM NO.   TYPE          CHARGE      No. of ELECS.   s-Pop       p-Pop       d-Pop       
    1          C           0.101960        3.8980     1.20466     2.69338
    2          H           0.160222        0.8398     0.83978
    3          H           0.160632        0.8394     0.83937
    4          H           0.160376        0.8396     0.83962
    5         Cl          -0.791519        7.7915     1.99577     5.79263     0.00311
    6         Cl          -0.791671        7.7917     1.99578     5.79278     0.00311
 DIPOLE           X         Y         Z       TOTAL
 POINT-CHG.    -0.002     0.003     0.001     0.004
 HYBRID         0.001    -0.000     0.000     0.001
 SUM           -0.001     0.003     0.001     0.003


          ATOMIC ORBITAL ELECTRON POPULATIONS

     Atom    s        px        py        pz      x^2-y^2     xz        z^2       yz        xy
    1  C   1.20466   1.13598   1.13610   0.42131
    2  H   0.83978
    3  H   0.83937
    4  H   0.83962
    5 Cl   1.99577   1.99998   1.99998   1.79268   0.00001   0.00048   0.00213   0.00048   0.00001
    6 Cl   1.99578   1.99998   1.99998   1.79283   0.00001   0.00048   0.00213   0.00048   0.00001
 *******************************************************************************
 ** Site#: 37037        For non-commercial use only           Version 21.153W **
 *******************************************************************************
 ** Cite this program as: MOPAC2016, Version: 21.153W, James J. P. Stewart,   **
 ** Stewart Computational Chemistry, web: HTTP://OpenMOPAC.net. Days left: 364**
 *******************************************************************************
 **                                                                           **
 **                                MOPAC2016                                  **
 **                                                                           **
 *******************************************************************************

                              PM7 CALCULATION RESULTS

 *******************************************************************************
 *  CALCULATION DONE:                                Thu Jun  3 15:16:58 2021  *
 *
 *
 *
 *                 CHARGE ON SYSTEM = -1
 *
 *
 *
 *  EPS=78.4   - USE ANDREAS KLAMT'S COSMO IMPLICIT SOLVATION MODEL
 *  OLDGEO     - PREVIOUS GEOMETRY TO BE USED
 *  FORCE      - FORCE CALCULATION SPECIFIED
 *  T=         - A TIME OF 172800.0 SECONDS REQUESTED
 *  DUMP=N     - RESTART FILE WRITTEN EVERY 7200.0 SECONDS REQUESTED
 *  ISOTOPE    - SAVE THE FORCE MATRIX FOR USE LATER
 *******************************************************************************
oldgeo charge=-1 eps=78.4 charge=-1 force isotope
 Transition state for CH3Cl --- Cl(-) <=> Cl(-) --- CH3Cl

  ATOM    CHEMICAL      BOND LENGTH      BOND ANGLE     TWIST ANGLE 
 NUMBER    SYMBOL       (ANGSTROMS)      (DEGREES)       (DEGREES) 
   (I)                     NA:I           NB:NA:I       NC:NB:NA:I       NA    NB    NC 
     1       C          0.00000001  *    0.0000000  *   -0.0000002  *     0     0     0
     2       H          1.08558084  *   -0.0000000  *   -0.0000000  *     1     0     0
     3       H          1.08567326  *  120.0002854  *   -0.0000000  *     1     2     0
     4       H          1.08559511  *  119.9926240  *  179.9442806  *     1     2     3
     5      Cl          2.18701887  *   89.9973549  *  -90.1018383  *     1     2     3
     6      Cl          2.18701887      89.9927602  *   89.9256813  *     1     2     3
 


          CARTESIAN COORDINATES 

    NO.       ATOM           X           Y           Z

     1         C          0.0000      0.0000     -0.0000
     2         H          1.0856      0.0000     -0.0000
     3         H         -0.5428      0.9402     -0.0000
     4         H         -0.5427     -0.9402     -0.0009
     5        Cl          0.0001     -0.0039      2.1870
     6        Cl          0.0003      0.0028     -2.1870

 General Reference for PM7:
 "Optimization of Parameters for Semiempirical Methods VI: More Modifications to the 
 NDDO Approximations and Re-optimization of Parameters", J. J. P. Stewart, J. Mol. Mod., 1:32, 19 (2013)
 https://link.springer.com/article/10.1007/s00894-012-1667-x

           Empirical Formula: C H3 Cl2  =     6 atoms



      MOLECULAR POINT GROUP   :   D3h 


      RHF CALCULATION, NO. OF DOUBLY OCCUPIED LEVELS = 11



          HEAT OF FORMATION =    -143.456321 KCALS/MOLE


          CARTESIAN COORDINATE DERIVATIVES

   NUMBER  ATOM         X            Y            Z

     1       C      0.017263     0.043142     0.024700
     2       H      0.170251    -0.037986    -0.023290
     3       H     -0.097275     0.141238    -0.138745
     4       H     -0.069452    -0.146373     0.034511
     5      Cl     -0.008965     0.011136     0.082783
     6      Cl     -0.011823    -0.011158     0.020048
 


          GRADIENT NORM =   0.34288


          TIME FOR SCF CALCULATION =    0.02

          TIME FOR DERIVATIVES     =    0.00

          MOLECULAR WEIGHT =   85.94



          ROTATIONAL CONSTANTS IN CM(-1)

          A =    4.73047641   B =    0.04944622   C =    0.04944615



           PRINCIPAL MOMENTS OF INERTIA IN UNITS OF 10**(-40)*GRAM-CM**2

          A =        5.9175   B =      566.1256   C =      566.1264


          ORIENTATION OF MOLECULE IN FORCE CALCULATION

    NO.       ATOM         X         Y         Z

     1          C      -0.0002    0.0004    0.0000
     2          H       1.0854    0.0004    0.0000
     3          H      -0.5430    0.9407    0.0000
     4          H      -0.5428   -0.9398   -0.0009
     5         Cl      -0.0001   -0.0035    2.1870
     6         Cl       0.0001    0.0033   -2.1870


    FIRST DERIVATIVES WILL BE USED IN THE CALCULATION OF SECOND DERIVATIVES

          ESTIMATED TIME TO COMPLETE CALCULATION =        0.56 SECONDS

    FOR POINT-GROUP D3h  THERE ARE  12 UNIQUE SYMMETRY FUNCTIONS.

 STEP:   1 TIME =     0.02 SECS, INTEGRAL =      0.02 TIME LEFT: 172799.97
 STEP:   2 TIME =     0.02 SECS, INTEGRAL =      0.03 TIME LEFT: 172799.95
 STEP:   3 TIME =     0.03 SECS, INTEGRAL =      0.06 TIME LEFT: 172799.92
 STEP:   4 TIME =     0.02 SECS, INTEGRAL =      0.08 TIME LEFT: 172799.91
 STEP:   5 TIME =     0.03 SECS, INTEGRAL =      0.11 TIME LEFT: 172799.88
 STEP:   6 TIME =     0.03 SECS, INTEGRAL =      0.14 TIME LEFT: 172799.84
 STEP:   7                       INTEGRAL =      0.14 TIME LEFT: 172799.84
 STEP:   8                       INTEGRAL =      0.14 TIME LEFT: 172799.84
 STEP:   9                       INTEGRAL =      0.14 TIME LEFT: 172799.84
 STEP:  10                       INTEGRAL =      0.14 TIME LEFT: 172799.84
 STEP:  11                       INTEGRAL =      0.14 TIME LEFT: 172799.84
 STEP:  12                       INTEGRAL =      0.14 TIME LEFT: 172799.84
 STEP:  13 TIME =     0.03 SECS, INTEGRAL =      0.17 TIME LEFT: 172799.81
 STEP:  14 TIME =     0.02 SECS, INTEGRAL =      0.19 TIME LEFT: 172799.80
 STEP:  15 TIME =     0.02 SECS, INTEGRAL =      0.20 TIME LEFT: 172799.78
 STEP:  16                       INTEGRAL =      0.20 TIME LEFT: 172799.78
 STEP:  17                       INTEGRAL =      0.20 TIME LEFT: 172799.78
 STEP:  18                       INTEGRAL =      0.20 TIME LEFT: 172799.78

(To convert to Hartree/Bohr^2, multiply by (10^(-21) x N x a0^2)/(4.184 x 627.51) =  0.0642)


           FORCE MATRIX IN MILLIDYNES/ANGSTROM


                  C  1       H  2       H  3       H  4      Cl  5      Cl  6
 ------------------------------------------------------------------------------
     C    1   9.259339
     H    2   3.505549   4.038955
     H    3   3.509569   0.405437   4.038955
     H    4   3.509154   0.402272   0.405437   4.038955
    Cl    5   1.146168   0.426865   0.427804   0.426903   0.735488
    Cl    6   1.145678   0.429411   0.429411   0.429411   0.657442   0.735488


          HEAT OF FORMATION =    -143.456321 KCALS/MOLE

          ZERO POINT ENERGY      20.741 KCAL/MOL

         NOTE: SYSTEM IS NOT A GROUND STATE, THEREFORE ZERO POINT
         ENERGY IS NOT MEANINGFULL. ZERO POINT ENERGY PRINTED
         DOES NOT INCLUDE THE  1 IMAGINARY FREQUENCIES


           NORMAL COORDINATE ANALYSIS (Total motion = 1 Angstrom)


   Root No.       1         2         3         4         5         6         7         8

                 1 A2"     1 E'      1 E'      1 A1'     1 E"      1 E"      2 E'      2 E'  

                -559.3     198.1     198.1     255.0    1046.1    1046.1    1260.2    1260.2
  
           1   -0.0000    0.2064   -0.0724    0.0000    0.0000    0.0000   -0.0442   -0.0425
           2   -0.0011    0.0724    0.2064    0.0000    0.0000    0.0000   -0.0420    0.0448
           3    0.7352    0.0001    0.0003   -0.0000   -0.0000    0.0000   -0.0001    0.0001
           4   -0.0000    0.2063   -0.0724    0.0124   -0.0000    0.0000   -0.0240   -0.0230
           5   -0.0000    0.0799    0.2260    0.0000   -0.0008    0.0002    0.3302   -0.3523
           6    0.0051    0.0001    0.0003    0.0000    0.4946   -0.1219    0.0005   -0.0005
           7   -0.0000    0.2236   -0.0691   -0.0062    0.0000   -0.0000    0.4078    0.0819
           8   -0.0000    0.0824    0.2082    0.0108    0.0002   -0.0008    0.2266    0.0849
           9    0.0051    0.0001    0.0003    0.0000   -0.1430    0.4945    0.0004    0.0001
          10   -0.0000    0.2186   -0.0861   -0.0062    0.0000    0.0000    0.1022    0.4080
          11   -0.0000    0.0653    0.2142   -0.0108    0.0005    0.0006   -0.0956   -0.2245
          12    0.0051    0.0001    0.0003   -0.0000   -0.3516   -0.3727   -0.0001   -0.0003
          13   -0.0000   -0.0442    0.0155    0.0000    0.0052   -0.0013    0.0006    0.0006
          14    0.0002   -0.0155   -0.0442    0.0007    0.0013    0.0053    0.0006   -0.0006
          15   -0.1248   -0.0000   -0.0001   -0.4813    0.0000    0.0000    0.0000   -0.0000
          16    0.0000   -0.0442    0.0155   -0.0000   -0.0052    0.0013    0.0006    0.0006
          17    0.0002   -0.0155   -0.0442   -0.0007   -0.0013   -0.0053    0.0005   -0.0006
          18   -0.1248   -0.0000   -0.0001    0.4813   -0.0000   -0.0000    0.0000   -0.0000


   Root No.       9        10        11        12

                 2 A2"     3 E'      3 E'      2 A1' 

                1270.2    2644.5    2644.5    2685.7
  
           1    0.0000   -0.0012   -0.0560    0.0000
           2    0.0000   -0.0624    0.0011    0.0000
           3   -0.0122   -0.0001   -0.0000   -0.0000
           4   -0.0000    0.0106    0.4710    0.3331
           5   -0.0005   -0.0268    0.0006    0.0000
           6    0.3215   -0.0000    0.0000    0.0000
           7   -0.0000   -0.2365    0.1041   -0.1666
           8   -0.0005    0.3818   -0.2214    0.2885
           9    0.3215    0.0006   -0.0003    0.0004
          10   -0.0000    0.2408    0.0953   -0.1665
          11   -0.0005    0.3915    0.2074   -0.2885
          12    0.3215    0.0006    0.0003   -0.0005
          13   -0.0000   -0.0000   -0.0000   -0.0000
          14    0.0000   -0.0000   -0.0000    0.0000
          15   -0.0116   -0.0000   -0.0000    0.0004
          16    0.0000    0.0000   -0.0000    0.0000
          17    0.0000   -0.0000    0.0000   -0.0000
          18   -0.0116   -0.0000    0.0000   -0.0004


           MASS-WEIGHTED COORDINATE ANALYSIS (NORMAL COORDINATES)


   Root No.       1         2         3         4         5         6         7         8

                 1 A2"     1 E'      1 E'      1 A1'     1 E"      1 E"      2 E'      2 E'  

                -559.3     198.1     198.1     255.0    1046.1    1046.1    1260.2    1260.2
  
           1   -0.0000    0.7586   -0.2662    0.0000    0.0000    0.0000   -0.2440   -0.2316
           2   -0.0014    0.2662    0.7586    0.0000    0.0000    0.0000   -0.2316    0.2440
           3    0.9245    0.0004    0.0012   -0.0000   -0.0000    0.0000   -0.0004    0.0004
           4   -0.0000    0.2197   -0.0771    0.0031   -0.0000    0.0000   -0.0384   -0.0363
           5   -0.0000    0.0851    0.2407    0.0000   -0.0012    0.0003    0.5279   -0.5564
           6    0.0019    0.0001    0.0004    0.0000    0.7912   -0.1929    0.0008   -0.0009
           7   -0.0000    0.2381   -0.0735   -0.0015    0.0000   -0.0000    0.6520    0.1293
           8   -0.0000    0.0877    0.2217    0.0027    0.0004   -0.0012    0.3624    0.1340
           9    0.0018    0.0001    0.0003    0.0000   -0.2286    0.7816    0.0006    0.0002
          10   -0.0000    0.2327   -0.0917   -0.0015    0.0000    0.0000    0.1634    0.6445
          11   -0.0000    0.0696    0.2281   -0.0027    0.0009    0.0009   -0.1528   -0.3546
          12    0.0019    0.0001    0.0003   -0.0000   -0.5626   -0.5888   -0.0002   -0.0005
          13   -0.0000   -0.2790    0.0979    0.0000    0.0497   -0.0121    0.0055    0.0052
          14    0.0005   -0.0979   -0.2790    0.0011    0.0121    0.0497    0.0053   -0.0055
          15   -0.2695   -0.0002   -0.0004   -0.7071    0.0000    0.0001    0.0000   -0.0000
          16    0.0000   -0.2790    0.0979   -0.0000   -0.0497    0.0121    0.0055    0.0052
          17    0.0004   -0.0979   -0.2790   -0.0011   -0.0121   -0.0497    0.0052   -0.0055
          18   -0.2695   -0.0002   -0.0004    0.7071   -0.0000   -0.0001    0.0000   -0.0000


   Root No.       9        10        11        12

                 2 A2"     3 E'      3 E'      2 A1' 

                1270.2    2644.5    2644.5    2685.7
  
           1    0.0000   -0.0063   -0.3173    0.0000
           2    0.0001   -0.3173    0.0063    0.0000
           3   -0.0744   -0.0005   -0.0000   -0.0000
           4   -0.0000    0.0156    0.7731    0.5773
           5   -0.0009   -0.0395    0.0009    0.0000
           6    0.5671   -0.0001    0.0000    0.0000
           7   -0.0000   -0.3487    0.1708   -0.2887
           8   -0.0009    0.5628   -0.3633    0.5000
           9    0.5671    0.0009   -0.0006    0.0008
          10   -0.0000    0.3550    0.1565   -0.2886
          11   -0.0009    0.5771    0.3405   -0.5000
          12    0.5671    0.0009    0.0005   -0.0008
          13   -0.0000   -0.0000   -0.0004   -0.0000
          14    0.0002   -0.0004   -0.0000    0.0000
          15   -0.1218   -0.0000   -0.0000    0.0038
          16    0.0000    0.0000   -0.0004    0.0000
          17    0.0002   -0.0004    0.0000   -0.0000
          18   -0.1218   -0.0000    0.0000   -0.0038


          DESCRIPTION OF VIBRATIONS


 VIBRATION          1    1A2"        ATOM PAIR     ENERGY CONTRIBUTION    RADIAL
 FREQUENCY          -559.29         C 1 -- Cl5         -22.2% (-92.0%)    100.0%
 TRANSITION DIPOLE  15.2802         C 1 -- Cl6         -22.2% (-92.0%)    100.0%
 TRAVEL (Ang.)       0.1148         C 1 -- H 4         -18.5% (-84.1%)      0.0%
 REDUCED MASS        9.1484         C 1 -- H 2         -18.5% (-84.1%)      0.0%
 EFFECTIVE MASS     14.5227         C 1 -- H 3         -18.5% (-84.1%)      0.0%
 FORCE CONSTANT     -1.6860

 VIBRATION          3    1E'         ATOM PAIR     ENERGY CONTRIBUTION    RADIAL
 FREQUENCY           198.09         C 1 -- Cl6         +24.3% (389.2%)      0.0%
 TRANSITION DIPOLE   1.0915         C 1 -- Cl5         +24.3% (389.2%)      0.0%
 TRAVEL (Ang.)       0.2472         C 1 -- H 2         +20.4% (356.3%)     11.8%
 REDUCED MASS        5.5697         C 1 -- H 4         +17.7% (332.4%)     44.4%
 EFFECTIVE MASS    101.1794         C 1 -- H 3         +13.2% (286.9%)     96.8%
 FORCE CONSTANT      0.1288

 VIBRATION          4    1A1'        ATOM PAIR     ENERGY CONTRIBUTION    RADIAL
 FREQUENCY           254.99         C 1 -- Cl5         +49.7% ( 51.0%)    100.0%
 TRANSITION DIPOLE   0.0000         C 1 -- Cl6         +49.7% ( 51.0%)    100.0%
 TRAVEL (Ang.)       0.1221         C 1 -- H 2          +0.2% (  3.1%)    100.0%
 REDUCED MASS       17.7255         C 1 -- H 3          +0.2% (  3.1%)    100.0%
 EFFECTIVE MASS     35.5287
 FORCE CONSTANT      0.6791

 VIBRATION          6    1E"         ATOM PAIR     ENERGY CONTRIBUTION    RADIAL
 FREQUENCY          1046.08         C 1 -- H 3         +61.4% ( 83.4%)      0.0%
 TRANSITION DIPOLE   0.0000         C 1 -- H 4         +34.8% ( 62.8%)      0.0%
 TRAVEL (Ang.)       0.3593         C 1 -- H 2          +3.7% ( 20.6%)      0.0%
 REDUCED MASS        0.4992
 EFFECTIVE MASS      1.0607
 FORCE CONSTANT      0.3218

 VIBRATION          8    2E'         ATOM PAIR     ENERGY CONTRIBUTION    RADIAL
 FREQUENCY          1260.16         C 1 -- H 4         +49.6% ( 69.1%)      0.6%
 TRANSITION DIPOLE   0.3773         C 1 -- H 2         +30.1% ( 53.9%)      5.6%
 TRAVEL (Ang.)       0.3126         C 1 -- Cl6          +6.7% ( 25.5%)      0.0%
 REDUCED MASS        0.5476         C 1 -- Cl5          +6.7% ( 25.5%)      0.0%
 EFFECTIVE MASS      1.9626
 FORCE CONSTANT      0.5124

 VIBRATION          9    2A2"        ATOM PAIR     ENERGY CONTRIBUTION    RADIAL
 FREQUENCY          1270.18         C 1 -- H 4         +33.3% ( 50.1%)      0.0%
 TRANSITION DIPOLE   0.9964         C 1 -- H 2         +33.3% ( 50.1%)      0.0%
 TRAVEL (Ang.)       0.4019         C 1 -- H 3         +33.3% ( 50.1%)      0.0%
 REDUCED MASS        0.3287
 EFFECTIVE MASS      1.3511
 FORCE CONSTANT      0.3124

 VIBRATION         11    3E'         ATOM PAIR     ENERGY CONTRIBUTION    RADIAL
 FREQUENCY          2644.52         C 1 -- H 2         +63.9% ( 83.3%)    100.0%
 TRANSITION DIPOLE   0.8737         C 1 -- H 3         +17.9% ( 44.1%)     84.9%
 TRAVEL (Ang.)       0.2198         C 1 -- H 4         +15.7% ( 41.4%)     82.4%
 REDUCED MASS        0.5280         C 1 -- Cl5          +1.2% ( 11.4%)      0.0%
 EFFECTIVE MASS      1.5852
 FORCE CONSTANT      2.1756

 VIBRATION         12    2A1'        ATOM PAIR     ENERGY CONTRIBUTION    RADIAL
 FREQUENCY          2685.66         C 1 -- H 4         +33.3% ( 55.2%)    100.0%
 TRANSITION DIPOLE   0.0000         C 1 -- H 2         +33.3% ( 55.2%)    100.0%
 TRAVEL (Ang.)       0.2734         C 1 -- H 3         +33.3% ( 55.2%)    100.0%
 REDUCED MASS        0.3359
 EFFECTIVE MASS      1.0082
 FORCE CONSTANT      1.4277

           FORCE CONSTANT IN INTERNAL COORDINATES (Millidynes/A)

    ATOM   CHEMICAL  BOND LENGTH      BOND ANGLE     TWIST ANGLE
   NUMBER   SYMBOL  FORCE CONSTANT  FORCE CONSTANT  FORCE CONSTANT

      1       C        0.000000        0.000000        0.000000
      2       H        3.914878        0.000000        0.000000
      3       H        3.914872        0.660198        0.000000
      4       H        3.914877        0.660103        0.653345
      5      Cl        0.706291        0.666462        0.666462
      6      Cl        0.706291        0.666462        0.666462
 *******************************************************************************
 ** Site#: 37037        For non-commercial use only           Version 21.153W **
 *******************************************************************************
 ** Cite this program as: MOPAC2016, Version: 21.153W, James J. P. Stewart,   **
 ** Stewart Computational Chemistry, web: HTTP://OpenMOPAC.net. Days left: 364**
 *******************************************************************************
 **                                                                           **
 **                                MOPAC2016                                  **
 **                                                                           **
 *******************************************************************************

                              PM7 CALCULATION RESULTS

 *******************************************************************************
 *  CALCULATION DONE:                                Thu Jun  3 15:16:59 2021  *
 *
 *
 *
 *                 CHARGE ON SYSTEM = -1
 *
 *
 *
 *  EPS=78.4   - USE ANDREAS KLAMT'S COSMO IMPLICIT SOLVATION MODEL
 *  IRC=N      - INTRINSIC REACTION COORDINATE  1 DEFINED
 *  DRC        - DYNAMIC REACTION COORDINATE CALCULATION
 *  OLDGEO     - PREVIOUS GEOMETRY TO BE USED
 *  RESTART    - CALCULATION RESTARTED
 *  T=         - A TIME OF 172800.0 SECONDS REQUESTED
 *  DUMP=N     - RESTART FILE WRITTEN EVERY 7200.0 SECONDS REQUESTED
 *  CYCLES=    - DO A MAXIMUM OF 100 STEPS
 *  ISOTOPE    - SAVE THE FORCE MATRIX FOR USE LATER
 *  HTML       - WRITE HTML SCRIPT TO GENERATE ANIMATION USING JSMOL
 *             - TO DISPLAY IN PDB FORMAT, ADD "PDBOUT"
 *  X-PRIOR    - GEOMETRY CHANGES TAKE PRIORITY IN DRC
 *******************************************************************************
oldgeo charge=-1 eps=78.4 charge=-1 IRC=1* x-priority=0.02  restart isotope html DRC cycles=100
 Transition state for CH3Cl --- Cl(-) <=> Cl(-) --- CH3Cl

  ATOM    CHEMICAL      BOND LENGTH      BOND ANGLE     TWIST ANGLE 
 NUMBER    SYMBOL       (ANGSTROMS)      (DEGREES)       (DEGREES) 
   (I)                     NA:I           NB:NA:I       NC:NB:NA:I       NA    NB    NC 
     1       C          0.00000001  *    0.0000000  *   -0.0000002  *     0     0     0
     2       H          1.08558084  *   -0.0000000  *   -0.0000000  *     1     0     0
     3       H          1.08567326  *  120.0002854  *   -0.0000000  *     1     2     0
     4       H          1.08559511  *  119.9926240  *  179.9442806  *     1     2     3
     5      Cl          2.18701887  *   89.9973549  *  -90.1018383  *     1     2     3
     6      Cl          2.18701887      89.9927602  *   89.9256813  *     1     2     3
 


          CARTESIAN COORDINATES 

    NO.       ATOM           X           Y           Z

     1         C          0.0000      0.0000     -0.0000
     2         H          1.0856      0.0000     -0.0000
     3         H         -0.5428      0.9402     -0.0000
     4         H         -0.5427     -0.9402     -0.0009
     5        Cl          0.0001     -0.0039      2.1870
     6        Cl          0.0003      0.0028     -2.1870

 General Reference for PM7:
 "Optimization of Parameters for Semiempirical Methods VI: More Modifications to the 
 NDDO Approximations and Re-optimization of Parameters", J. J. P. Stewart, J. Mol. Mod., 1:32, 19 (2013)
 https://link.springer.com/article/10.1007/s00894-012-1667-x

           Empirical Formula: C H3 Cl2  =     6 atoms



      MOLECULAR POINT GROUP   :   D3h 


      RHF CALCULATION, NO. OF DOUBLY OCCUPIED LEVELS = 11


          MOLECULAR WEIGHT =   85.94


          ESTIMATED TIME TO COMPLETE CALCULATION =        0.00 SECONDS

          TIME USED UP TO RESTART =                  0.20

    FOR POINT-GROUP D3h  THERE ARE  12 UNIQUE SYMMETRY FUNCTIONS.

           INITIAL VELOCITY IN DRC (Angstroms/Femtosecond)
        -0.00003        -0.00114         0.73521
        -0.00000        -0.00001         0.00510
        -0.00000        -0.00001         0.00507
        -0.00000        -0.00001         0.00510
        -0.00001         0.00022        -0.12476
         0.00002         0.00016        -0.12476
 THE VIBRATIONAL FREQUENCY (  -559.29CM(-1)) IS TOO SMALL
 FOR ONE QUANTUM TO BE USED
 INSTEAD 0.3KCAL/MOLE WILL BE USED TO START THE IRC

 GEOMETRY PRIORITY, STEP = 0.0200 ANGSTROMS



 FEMTOSECONDS  POINT  POTENTIAL + KINETIC  =   TOTAL     ERROR    REF%   MOVEMENT
     0.000       1  -143.45633    0.30000  -143.15633   0.00000     1   %  0.0000
     3.239       6  -143.48956    0.34891  -143.14065   0.01567     2   %  0.0200
     6.099      10  -143.59544    0.43644  -143.15900  -0.00267     3   %  0.0400
     8.461      13  -143.76021    0.60331  -143.15690  -0.00058     4   %  0.0586
    10.418      15  -143.97425    0.82153  -143.15272   0.00361     5   %  0.0766
    11.470      16  -144.13430    0.97474  -143.15957  -0.00324     6   %  0.0877
    13.736      18  -144.65600    1.49630  -143.15970  -0.00337     7   %  0.1164
    14.954      19  -145.00930    1.85271  -143.15659  -0.00026     8   %  0.1352
    16.233      20  -145.37426    2.31633  -143.05793   0.09841     9   %  0.1577
    17.577      21  -145.99226    2.80245  -143.18982  -0.03348    10   %  0.1846
    18.987      22  -146.75921    3.61500  -143.14421   0.01213    11   %  0.2163
    20.468      23  -147.79397    4.57987  -143.21410  -0.05775    12   %  0.2548
    22.023      24  -148.91282    5.86149  -143.05132   0.10503    13   %  0.3017
    23.656      25  -150.30734    7.14277  -143.16457  -0.00821    14   %  0.3597
    25.370      26  -151.75764    8.61402  -143.14361   0.01276    15   %  0.4306
    27.548      27  -153.25049   10.10749  -143.14300   0.01339    16   %  0.5369
    27.932      27  -153.43015   10.27504  -143.15511   0.00128    17   %  0.5572
    28.282      28  -153.57521   10.40364  -143.17157  -0.01517    18   %  0.5762
    28.647      28  -153.69298   10.50891  -143.18408  -0.02768    19   %  0.5962
    28.993      29  -153.76745   10.58054  -143.18691  -0.03051    20   %  0.6154
    29.343      29  -153.80726   10.63043  -143.17683  -0.02043    21   %  0.6351
    29.684      30  -153.80618   10.63616  -143.17002  -0.01362    22   %  0.6545
    30.025      30  -153.76591   10.59979  -143.16612  -0.00971    23   %  0.6741
    30.359      31  -153.68960   10.52525  -143.16434  -0.00794    24   %  0.6935
    30.694      31  -153.57763   10.41248  -143.16515  -0.00874    25   %  0.7130
    31.024      32  -153.43855   10.26413  -143.17442  -0.01801    26   %  0.7322
    31.355      32  -153.26132   10.08264  -143.17868  -0.02227    27   %  0.7516
    31.682      33  -153.04383    9.87589  -143.16794  -0.01152    28   %  0.7708
    32.009      34  -152.78911    9.62796  -143.16115  -0.00473    29   %  0.7900
    32.336      34  -152.50532    9.34433  -143.16099  -0.00457    30   %  0.8092
    32.664      35  -152.20202    9.02722  -143.17480  -0.01838    31   %  0.8283
    32.993      36  -151.86090    8.69087  -143.17003  -0.01361    32   %  0.8474
    33.322      36  -151.49497    8.33336  -143.16161  -0.00518    33   %  0.8663
    33.655      37  -151.11056    7.94003  -143.17053  -0.01410    34   %  0.8853
    33.991      38  -150.69757    7.53406  -143.16352  -0.00709    35   %  0.9042
    34.332      39  -150.25990    7.11081  -143.14909   0.00734    36   %  0.9232
    34.673      39  -149.81141    6.67534  -143.13607   0.02036    37   %  0.9417
    35.028      40  -149.37060    6.21052  -143.16008  -0.00365    38   %  0.9607
    35.388      41  -148.94197    5.76821  -143.17376  -0.01732    39   %  0.9794
    35.747      41  -148.53419    5.35946  -143.17473  -0.01830    40   %  0.9974
    36.116      42  -148.14309    4.96702  -143.17607  -0.01963    41   %  1.0154
    36.493      43  -147.78754    4.61085  -143.17668  -0.02024    42   %  1.0329
    36.867      43  -147.48342    4.30683  -143.17660  -0.02016    43   %  1.0495
    36.959      44  -147.41752    4.24101  -143.17651  -0.02007    44   %  1.0535
    37.578      45  -147.06917    3.89384  -143.17534  -0.01890    45   %  1.0786
    38.228      46  -146.94112    3.73486  -143.20626  -0.04982    46   %  1.1020
    38.910      47  -146.99965    3.84881  -143.15084   0.00560    47   %  1.1230
    39.975      48  -147.60811    4.44979  -143.15833  -0.00188    48   %  1.1476
    40.501      49  -148.12168    4.95872  -143.16296  -0.00651    49   %  1.1559
    41.025      49  -148.74581    5.58697  -143.15883  -0.00238    50   %  1.1616
    41.543      50  -149.45943    6.29456  -143.16487  -0.00842    51   %  1.1646
    42.062      51  -150.23356    7.06961  -143.16396  -0.00750    52   %  1.1651
    42.581      52  -151.04465    7.88869  -143.15597   0.00049    53   %  1.1632
    43.100      53  -151.86654    8.71295  -143.15360   0.00287    54   %  1.1589
    43.619      54  -152.67593    9.52352  -143.15242   0.00405    55   %  1.1523
    43.930      55  -153.14966    9.99680  -143.15285   0.00361    56   %  1.1473
    44.408      56  -153.85904   10.69176  -143.16728  -0.01081    57   %  1.1383
    44.872      57  -154.49575   11.33660  -143.15915  -0.00268    58   %  1.1279
    45.351      58  -155.09069   11.93678  -143.15392   0.00256    59   %  1.1157
    45.828      59  -155.61784   12.46266  -143.15518   0.00130    60   %  1.1085
    46.327      60  -156.08495   12.93753  -143.14742   0.00907    61   %  1.1060
    46.832      61  -156.48123   13.32583  -143.15540   0.00109    62   %  1.1025
    47.586      62  -156.91428   13.75764  -143.15664  -0.00014    63   %  1.0957
    47.950      63  -157.05585   13.89852  -143.15733  -0.00083    64   %  1.0918
    48.312      63  -157.15318   13.99470  -143.15847  -0.00197    65   %  1.0876
    48.660      64  -157.20186   14.04871  -143.15315   0.00336    66   %  1.0834
    49.010      64  -157.21209   14.06429  -143.14780   0.00871    67   %  1.0789
    49.348      65  -157.18991   14.03815  -143.15177   0.00475    68   %  1.0744
    49.690      65  -157.13694   13.98060  -143.15634   0.00018    69   %  1.0698
    50.026      66  -157.05388   13.89591  -143.15797  -0.00144    70   %  1.0652
    50.363      66  -156.94346   13.78488  -143.15857  -0.00205    71   %  1.0606
    50.701      67  -156.80375   13.64592  -143.15783  -0.00130    72   %  1.0559
    51.037      67  -156.64222   13.48487  -143.15735  -0.00082    73   %  1.0513
    51.382      68  -156.45225   13.29439  -143.15786  -0.00132    74   %  1.0467
    51.721      68  -156.24619   13.08771  -143.15848  -0.00194    75   %  1.0424
    52.078      69  -156.00956   12.85069  -143.15887  -0.00233    76   %  1.0380
    52.426      69  -155.76215   12.60303  -143.15912  -0.00257    77   %  1.0339
    52.675      70  -155.57743   12.41813  -143.15929  -0.00275    78   %  1.0312
    53.498      71  -154.92352   11.76368  -143.15984  -0.00328    79   %  1.0235
    54.361      72  -154.19386   11.03336  -143.16050  -0.00394    80   %  1.0180
    55.267      73  -153.41824   10.25224  -143.16600  -0.00944    81   %  1.0159
    56.354      74  -152.50977    9.34457  -143.16520  -0.00862    82   %  1.0195
    56.962      74  -152.03041    8.86385  -143.16656  -0.00998    83   %  1.0250
    57.218      75  -151.83580    8.67058  -143.16522  -0.00864    84   %  1.0281
    58.267      76  -151.08530    7.93741  -143.14789   0.00870    85   %  1.0458
    59.369      77  -150.42988    7.27177  -143.15811  -0.00152    86   %  1.0733
    60.526      78  -149.90923    6.72940  -143.17983  -0.02323    87   %  1.1116
    61.740      79  -149.58503    6.34206  -143.24297  -0.08637    88   %  1.1612
    63.157      80  -149.32353    6.15895  -143.16458  -0.00797    89   %  1.2292
    63.536      80  -149.27506    6.13273  -143.14232   0.01429    90   %  1.2490
    63.915      80  -149.24197    6.11756  -143.12441   0.03220    91   %  1.2692
    64.294      80  -149.22427    6.11342  -143.11085   0.04577    92   %  1.2898
    64.601      81  -149.21479    6.11342  -143.10137   0.05524    93   %  1.3070
    64.947      81  -149.21903    6.12419  -143.09484   0.06178    94   %  1.3266
    65.294      81  -149.24150    6.14816  -143.09334   0.06328    95   %  1.3464
    65.640      81  -149.28220    6.18532  -143.09687   0.05974    96   %  1.3663
    65.956      82  -149.33798    6.22441  -143.11357   0.04305    97   %  1.3848
    66.287      82  -149.41253    6.27740  -143.13512   0.02150    98   %  1.4043
    66.618      82  -149.50135    6.34803  -143.15332   0.00330    99   %  1.4239
    66.949      82  -149.60444    6.43628  -143.16816  -0.01153   100   %  1.4435


           INITIAL VELOCITY IN DRC (Angstroms/Femtosecond)
         0.00003         0.00114        -0.73521
         0.00000         0.00001        -0.00510
         0.00000         0.00001        -0.00507
         0.00000         0.00001        -0.00510
         0.00001        -0.00022         0.12476
        -0.00002        -0.00016         0.12476
 THE VIBRATIONAL FREQUENCY (  -559.29CM(-1)) IS TOO SMALL
 FOR ONE QUANTUM TO BE USED
 INSTEAD 0.3KCAL/MOLE WILL BE USED TO START THE IRC

 GEOMETRY PRIORITY, STEP = 0.0200 ANGSTROMS



 FEMTOSECONDS  POINT  POTENTIAL + KINETIC  =   TOTAL     ERROR    REF%   MOVEMENT
     0.000       1  -143.45633    0.30000  -143.15633   0.00000     1   %  0.0000
     2.937       6  -143.52096    0.33069  -143.19026  -0.03394     2   %  0.0178
     6.052      10  -143.62408    0.46959  -143.15449   0.00184     3   %  0.0400
     8.461      13  -143.80081    0.64489  -143.15592   0.00041     4   %  0.0596
    10.418      15  -144.02526    0.87791  -143.14735   0.00898     5   %  0.0782
    11.470      16  -144.19690    1.03381  -143.16309  -0.00676     6   %  0.0897
    13.736      18  -144.66083    1.49218  -143.16865  -0.01232     7   %  0.1192
    14.954      19  -145.02114    1.87025  -143.15089   0.00544     8   %  0.1381
    16.233      20  -145.43559    2.33790  -143.09769   0.05865     9   %  0.1610
    17.577      21  -146.06692    2.88632  -143.18060  -0.02426    10   %  0.1882
    18.987      22  -146.84741    3.70651  -143.14091   0.01543    11   %  0.2203
    20.468      23  -147.91595    4.68624  -143.22971  -0.07336    12   %  0.2591
    22.023      24  -149.05504    6.00264  -143.05241   0.10395    13   %  0.3064
    23.656      25  -150.45759    7.29217  -143.16542  -0.00906    14   %  0.3653
    25.370      26  -151.88690    8.75414  -143.13276   0.02361    15   %  0.4376
    27.353      27  -153.21872   10.09940  -143.11932   0.03706    16   %  0.5353
    27.731      27  -153.39610   10.25323  -143.14287   0.01352    17   %  0.5554
    28.090      28  -153.53629   10.37967  -143.15662  -0.00023    18   %  0.5747
    28.453      28  -153.64866   10.48552  -143.16314  -0.00675    19   %  0.5946
    28.817      28  -153.72255   10.55574  -143.16681  -0.01042    20   %  0.6148
    29.156      29  -153.75864   10.59176  -143.16688  -0.01048    21   %  0.6338
    29.500      30  -153.75718   10.59123  -143.16595  -0.00955    22   %  0.6532
    29.844      30  -153.71690   10.55390  -143.16300  -0.00660    23   %  0.6728
    30.182      31  -153.64050   10.47820  -143.16231  -0.00590    24   %  0.6922
    30.520      31  -153.52780   10.36380  -143.16400  -0.00759    25   %  0.7117
    30.854      32  -153.37921   10.21442  -143.16479  -0.00838    26   %  0.7310
    31.188      32  -153.19470   10.02903  -143.16567  -0.00926    27   %  0.7504
    31.519      33  -152.97817    9.80991  -143.16826  -0.01185    28   %  0.7696
    31.851      34  -152.72654    9.55745  -143.16909  -0.01267    29   %  0.7888
    32.181      34  -152.44149    9.27362  -143.16787  -0.01145    30   %  0.8080
    32.513      35  -152.12217    8.95860  -143.16357  -0.00715    31   %  0.8271
    32.846      36  -151.77712    8.61213  -143.16498  -0.00856    32   %  0.8461
    33.178      36  -151.41217    8.24297  -143.16920  -0.01277    33   %  0.8650
    33.515      37  -151.02221    7.85115  -143.17106  -0.01463    34   %  0.8840
    33.855      38  -150.61534    7.44171  -143.17363  -0.01720    35   %  0.9030
    34.199      39  -150.19360    7.02030  -143.17330  -0.01687    36   %  0.9219
    34.544      39  -149.76409    6.59554  -143.16855  -0.01212    37   %  0.9405
    34.903      40  -149.31526    6.15312  -143.16213  -0.00570    38   %  0.9594
    35.264      41  -148.88201    5.71815  -143.16386  -0.00743    39   %  0.9780
    35.624      41  -148.47598    5.30495  -143.17103  -0.01460    40   %  0.9961
    35.995      42  -148.08843    4.91430  -143.17413  -0.01769    41   %  1.0140
    36.373      43  -147.73922    4.56296  -143.17626  -0.01982    42   %  1.0315
    36.748      43  -147.44244    4.26531  -143.17714  -0.02070    43   %  1.0481
    36.852      44  -147.37121    4.19430  -143.17691  -0.02047    44   %  1.0525
    37.474      45  -147.03671    3.86535  -143.17136  -0.01492    45   %  1.0775
    38.127      46  -146.91051    3.72512  -143.18539  -0.02895    46   %  1.1009
    38.813      47  -146.99261    3.84422  -143.14839   0.00806    47   %  1.1217
    39.864      48  -147.63675    4.47346  -143.16330  -0.00685    48   %  1.1456
    40.387      49  -148.16152    4.99486  -143.16666  -0.01021    49   %  1.1537
    40.908      49  -148.79537    5.62946  -143.16591  -0.00946    50   %  1.1591
    41.421      50  -149.50765    6.34233  -143.16532  -0.00886    51   %  1.1620
    41.935      51  -150.27550    7.11379  -143.16171  -0.00525    52   %  1.1624
    42.449      52  -151.07623    7.92066  -143.15557   0.00089    53   %  1.1603
    42.962      53  -151.88725    8.73181  -143.15543   0.00103    54   %  1.1560
    43.474      54  -152.68958    9.53078  -143.15880  -0.00234    55   %  1.1495
    43.981      55  -153.45192   10.29459  -143.15733  -0.00086    56   %  1.1410
    44.293      56  -153.89934   10.74177  -143.15756  -0.00109    57   %  1.1348
    44.775      57  -154.55097   11.39135  -143.15961  -0.00313    58   %  1.1240
    45.240      58  -155.12259   11.96281  -143.15978  -0.00330    59   %  1.1120
    45.728      59  -155.65475   12.49520  -143.15955  -0.00307    60   %  1.1059
    46.222      60  -156.10755   12.95695  -143.15060   0.00588    61   %  1.1034
    46.739      61  -156.50317   13.34475  -143.15843  -0.00193    62   %  1.0997
    47.436      62  -156.89514   13.73647  -143.15866  -0.00216    63   %  1.0934
    47.812      62  -157.03799   13.88020  -143.15779  -0.00129    64   %  1.0895
    48.164      63  -157.13199   13.97111  -143.16088  -0.00437    65   %  1.0854
    48.515      64  -157.18183   14.02400  -143.15783  -0.00132    66   %  1.0812
    48.864      64  -157.19041   14.03943  -143.15098   0.00554    67   %  1.0768
    49.205      65  -157.16764   14.01394  -143.15370   0.00282    68   %  1.0723
    49.547      65  -157.11433   13.95482  -143.15951  -0.00299    69   %  1.0678
    49.884      66  -157.03079   13.86943  -143.16137  -0.00484    70   %  1.0632
    50.221      66  -156.91938   13.75798  -143.16141  -0.00488    71   %  1.0586
    50.560      67  -156.77919   13.61877  -143.16042  -0.00389    72   %  1.0540
    50.897      67  -156.61605   13.45659  -143.15946  -0.00293    73   %  1.0494
    51.242      68  -156.42613   13.26634  -143.15979  -0.00326    74   %  1.0448
    51.582      68  -156.21853   13.05777  -143.16075  -0.00421    75   %  1.0405
    51.938      69  -155.98331   12.82197  -143.16134  -0.00480    76   %  1.0361
    52.288      69  -155.73390   12.57238  -143.16151  -0.00497    77   %  1.0320
    52.644      70  -155.46764   12.30621  -143.16143  -0.00488    78   %  1.0281
    53.475      71  -154.79855   11.63830  -143.16025  -0.00369    79   %  1.0205
    54.348      72  -154.05598   10.89608  -143.15990  -0.00333    80   %  1.0151
    55.264      73  -153.27439   10.10650  -143.16789  -0.01132    81   %  1.0133
    56.808      74  -152.01128    8.84345  -143.16783  -0.01125    82   %  1.0216
    57.235      75  -151.69425    8.52379  -143.17047  -0.01389    83   %  1.0268
    58.296      76  -150.97465    7.80642  -143.16823  -0.01164    84   %  1.0458
    59.409      77  -150.34419    7.17948  -143.16471  -0.00812    85   %  1.0750
    60.578      78  -149.74061    6.66893  -143.07168   0.08492    86   %  1.1154
    61.806      79  -149.45261    6.21044  -143.24217  -0.08557    87   %  1.1675
    63.382      80  -149.25067    6.05073  -143.19994  -0.04333    88   %  1.2452
    63.755      80  -149.26122    6.03448  -143.22674  -0.07013    89   %  1.2651
    64.127      80  -149.27652    6.03863  -143.23789  -0.08128    90   %  1.2854
    64.454      81  -149.29335    6.05945  -143.23390  -0.07729    91   %  1.3034
    64.798      81  -149.29221    6.11759  -143.17461  -0.01800    92   %  1.3229
    65.142      81  -149.31017    6.18041  -143.12977   0.02685    93   %  1.3426
    65.486      81  -149.34724    6.24788  -143.09936   0.05726    94   %  1.3625
    65.830      81  -149.40342    6.32002  -143.08340   0.07322    95   %  1.3826
    66.132      82  -149.47413    6.36590  -143.10823   0.04839    96   %  1.4007
    66.457      82  -149.56416    6.42839  -143.13577   0.02085    97   %  1.4201
    66.782      82  -149.66767    6.50906  -143.15861  -0.00198    98   %  1.4397
    67.107      82  -149.78466    6.60791  -143.17675  -0.02012    99   %  1.4592
    67.437      83  -149.91623    6.72873  -143.18750  -0.03087   100   %  1.4791
    67.763      83  -150.05843    6.87121  -143.18722  -0.03059   101   %  1.4988
    68.089      83  -150.21570    7.02812  -143.18758  -0.03095   102   %  1.5186
    68.415      83  -150.38804    7.19945  -143.18859  -0.03196   103   %  1.5383
    68.742      83  -150.57546    7.38522  -143.19025  -0.03361   104   %  1.5580



 **********************
 *                    *
 * JOB ENDED NORMALLY *
 *                    *
 **********************



 TOTAL JOB TIME:             4.26 SECONDS

 == MOPAC DONE ==
