 *******************************************************************************
 ** Site#: 37037        For non-commercial use only           Version 21.153W **
 *******************************************************************************
 ** Cite this program as: MOPAC2016, Version: 21.153W, James J. P. Stewart,   **
 ** Stewart Computational Chemistry, web: HTTP://OpenMOPAC.net. Days left: 364**
 *******************************************************************************
 **                                                                           **
 **                                MOPAC2016                                  **
 **                                                                           **
 *******************************************************************************

                              PM7 CALCULATION RESULTS

 *******************************************************************************
 *  CALCULATION DONE:                                Thu Jun  3 15:17:30 2021  *
 *  SYMMETRY   - SYMMETRY CONDITIONS TO BE IMPOSED
 *
 *
 *
 *                 CHARGE ON SYSTEM = -1
 *
 *
 *
 *  EPS=78.4   - USE ANDREAS KLAMT'S COSMO IMPLICIT SOLVATION MODEL
 *  T=         - A TIME OF 172800.0 SECONDS REQUESTED
 *  DUMP=N     - RESTART FILE WRITTEN EVERY 7200.0 SECONDS REQUESTED
 *******************************************************************************



                    PARAMETER DEPENDENCE DATA

        REFERENCE ATOM      FUNCTION NO.    DEPENDENT ATOM(S)
            5                  1               6

             DESCRIPTIONS OF THE FUNCTIONS USED
   1      BOND LENGTH    IS SET EQUAL TO THE REFERENCE BOND LENGTH   
 
 charge=-1 eps=78.4 charge=-1 symmetry
 Transition state for CH3Cl --- Cl(-) <=> Cl(-) --- CH3Cl

  ATOM    CHEMICAL      BOND LENGTH      BOND ANGLE     TWIST ANGLE 
 NUMBER    SYMBOL       (ANGSTROMS)      (DEGREES)       (DEGREES) 
   (I)                     NA:I           NB:NA:I       NC:NB:NA:I       NA    NB    NC 
     1       C          0.00000000  *    0.0000000  *    0.0000000  *     0     0     0
     2       H          1.00000000  *    0.0000000  *    0.0000000  *     1     0     0
     3       H          1.00000000  *  120.0000000  *    0.0000000  *     1     2     0
     4       H          1.00000000  *  120.0000000  *  180.0000000  *     1     2     3
     5      Cl          2.00000000  *   90.0000000  *  -90.0000000  *     1     2     3
     6      Cl          2.00000000      90.0000000  *   90.0000000  *     1     2     3
 


          CARTESIAN COORDINATES 

    NO.       ATOM           X           Y           Z

     1         C          0.0000      0.0000      0.0000
     2         H          1.0000      0.0000      0.0000
     3         H         -0.5000      0.8660      0.0000
     4         H         -0.5000     -0.8660     -0.0000
     5        Cl          0.0000      0.0000      2.0000
     6        Cl          0.0000      0.0000     -2.0000

 General Reference for PM7:
 "Optimization of Parameters for Semiempirical Methods VI: More Modifications to the 
 NDDO Approximations and Re-optimization of Parameters", J. J. P. Stewart, J. Mol. Mod., 1:32, 19 (2013)
 https://link.springer.com/article/10.1007/s00894-012-1667-x

           Empirical Formula: C H3 Cl2  =     6 atoms



      MOLECULAR POINT GROUP   :   D3h 


      RHF CALCULATION, NO. OF DOUBLY OCCUPIED LEVELS = 11


          Geometry optimization using EF

          DIAGONAL MATRIX USED AS START HESSIAN

 CYCLE:     1 TIME:   0.016 TIME LEFT:  2.00D  GRAD.:   164.250 HEAT: -125.6261
 CYCLE:     2 TIME:   0.016 TIME LEFT:  2.00D  GRAD.:    40.734 HEAT: -141.9595
 CYCLE:     3 TIME:   0.000 TIME LEFT:  2.00D  GRAD.:    10.276 HEAT: -143.3218
 CYCLE:     4 TIME:   0.016 TIME LEFT:  2.00D  GRAD.:     3.444 HEAT: -143.4382
 CYCLE:     5 TIME:   0.016 TIME LEFT:  2.00D  GRAD.:     1.434 HEAT: -143.4533
 CYCLE:     6 TIME:   0.000 TIME LEFT:  2.00D  GRAD.:     0.314 HEAT: -143.4563

     GRADIENT =  0.31374 IS LESS THAN CUTOFF =  1.00000



 -------------------------------------------------------------------------------
 charge=-1 eps=78.4 charge=-1 symmetry
 Transition state for CH3Cl --- Cl(-) <=> Cl(-) --- CH3Cl



     GEOMETRY OPTIMISED USING EIGENVECTOR FOLLOWING (EF).     
     SCF FIELD WAS ACHIEVED                                   


                              PM7 CALCULATION
                                                       MOPAC2016 (Version: 21.153W)
                                                       Thu Jun  3 15:17:30 2021
                                                       No. of days remaining = 364




          FINAL HEAT OF FORMATION =       -143.45632 KCAL/MOL =    -600.22125 KJ/MOL
          VAN DER WAALS AREA      =        108.98 SQUARE ANGSTROMS


          TOTAL ENERGY            =       -702.29338 EV
          ELECTRONIC ENERGY       =       -445.69790 EV  POINT GROUP:     D3h 
          CORE-CORE REPULSION     =       -256.59548 EV

          DIELECTRIC ENERGY       =         -2.72689 EV
          COSMO AREA              =        108.98 SQUARE ANGSTROMS
          COSMO VOLUME            =         92.00 CUBIC ANGSTROMS

          GRADIENT NORM           =          0.31374 = 0.12808 PER ATOM
          IONIZATION POTENTIAL    =         10.332405 EV
          HOMO LUMO ENERGIES (EV) =        -10.332 -0.200
          NO. OF FILLED LEVELS    =         11
          MOLECULAR WEIGHT        =         85.9407

          MOLECULAR DIMENSIONS (Angstroms)

            Atom       Atom       Distance
           Cl     6   Cl     5     4.37404
            H     3    H     4     1.88044
            H     3    H     2     1.62834


          SCF CALCULATIONS        =          8
 
          WALL-CLOCK TIME         =          0.094 SECONDS
          COMPUTATION TIME        =          0.078 SECONDS




  ATOM    CHEMICAL      BOND LENGTH      BOND ANGLE     TWIST ANGLE 
 NUMBER    SYMBOL       (ANGSTROMS)      (DEGREES)       (DEGREES) 
   (I)                     NA:I           NB:NA:I       NC:NB:NA:I       NA    NB    NC 
     1       C          0.00000001  *    0.0000000  *   -0.0000002  *     0     0     0
     2       H          1.08558084  *   -0.0000000  *   -0.0000000  *     1     0     0
     3       H          1.08567326  *  120.0002854  *   -0.0000000  *     1     2     0
     4       H          1.08559511  *  119.9926240  *  179.9442806  *     1     2     3
     5      Cl          2.18701887  *   89.9973549  *  -90.1018383  *     1     2     3
     6      Cl          2.18701887      89.9927602  *   89.9256813  *     1     2     3

                             CARTESIAN COORDINATES

   1    C        0.000000005     0.000000011    -0.000000184
   2    H        1.085580841     0.000000011    -0.000000184
   3    H       -0.542841309     0.940217930    -0.000000184
   4    H       -0.542676515    -0.940222359    -0.000914538
   5   Cl        0.000100970    -0.003887223     2.187015231
   6   Cl        0.000276355     0.002836804    -2.187017198


           Empirical Formula: C H3 Cl2  =     6 atoms



      MOLECULAR POINT GROUP   :   D3h 


                  EIGENVALUES  
 -26.75483 -25.40506 -23.80428 -15.09582 -15.09498 -12.79356 -11.19343 -11.19063
 -11.00300 -11.00035 -10.33240  -0.19960   5.13893   5.41044   5.41208  74.93675
  75.13732  75.13739  75.73443  75.85542  75.85548  76.07482  76.07482  76.24902
  76.24903


              NET ATOMIC CHARGES AND DIPOLE CONTRIBUTIONS

  ATOM NO.   TYPE          CHARGE      No. of ELECS.   s-Pop       p-Pop       d-Pop       
    1          C           0.101960        3.8980     1.20466     2.69338
    2          H           0.160222        0.8398     0.83978
    3          H           0.160632        0.8394     0.83937
    4          H           0.160376        0.8396     0.83962
    5         Cl          -0.791519        7.7915     1.99577     5.79263     0.00311
    6         Cl          -0.791671        7.7917     1.99578     5.79278     0.00311
 DIPOLE           X         Y         Z       TOTAL
 POINT-CHG.    -0.002     0.003     0.001     0.004
 HYBRID         0.001    -0.000     0.000     0.001
 SUM           -0.001     0.003     0.001     0.003


          ATOMIC ORBITAL ELECTRON POPULATIONS

     Atom    s        px        py        pz      x^2-y^2     xz        z^2       yz        xy
    1  C   1.20466   1.13598   1.13610   0.42131
    2  H   0.83978
    3  H   0.83937
    4  H   0.83962
    5 Cl   1.99577   1.99998   1.99998   1.79268   0.00001   0.00048   0.00213   0.00048   0.00001
    6 Cl   1.99578   1.99998   1.99998   1.79283   0.00001   0.00048   0.00213   0.00048   0.00001
 *******************************************************************************
 ** Site#: 37037        For non-commercial use only           Version 21.153W **
 *******************************************************************************
 ** Cite this program as: MOPAC2016, Version: 21.153W, James J. P. Stewart,   **
 ** Stewart Computational Chemistry, web: HTTP://OpenMOPAC.net. Days left: 364**
 *******************************************************************************
 **                                                                           **
 **                                MOPAC2016                                  **
 **                                                                           **
 *******************************************************************************

                              PM7 CALCULATION RESULTS

 *******************************************************************************
 *  CALCULATION DONE:                                Thu Jun  3 15:17:30 2021  *
 *
 *
 *
 *                 CHARGE ON SYSTEM = -1
 *
 *
 *
 *  EPS=78.4   - USE ANDREAS KLAMT'S COSMO IMPLICIT SOLVATION MODEL
 *  OLDGEO     - PREVIOUS GEOMETRY TO BE USED
 *  FORCE      - FORCE CALCULATION SPECIFIED
 *  T=         - A TIME OF 172800.0 SECONDS REQUESTED
 *  DUMP=N     - RESTART FILE WRITTEN EVERY 7200.0 SECONDS REQUESTED
 *  ISOTOPE    - SAVE THE FORCE MATRIX FOR USE LATER
 *******************************************************************************
oldgeo charge=-1 eps=78.4 charge=-1 force isotope
 Transition state for CH3Cl --- Cl(-) <=> Cl(-) --- CH3Cl

  ATOM    CHEMICAL      BOND LENGTH      BOND ANGLE     TWIST ANGLE 
 NUMBER    SYMBOL       (ANGSTROMS)      (DEGREES)       (DEGREES) 
   (I)                     NA:I           NB:NA:I       NC:NB:NA:I       NA    NB    NC 
     1       C          0.00000001  *    0.0000000  *   -0.0000002  *     0     0     0
     2       H          1.08558084  *   -0.0000000  *   -0.0000000  *     1     0     0
     3       H          1.08567326  *  120.0002854  *   -0.0000000  *     1     2     0
     4       H          1.08559511  *  119.9926240  *  179.9442806  *     1     2     3
     5      Cl          2.18701887  *   89.9973549  *  -90.1018383  *     1     2     3
     6      Cl          2.18701887      89.9927602  *   89.9256813  *     1     2     3
 


          CARTESIAN COORDINATES 

    NO.       ATOM           X           Y           Z

     1         C          0.0000      0.0000     -0.0000
     2         H          1.0856      0.0000     -0.0000
     3         H         -0.5428      0.9402     -0.0000
     4         H         -0.5427     -0.9402     -0.0009
     5        Cl          0.0001     -0.0039      2.1870
     6        Cl          0.0003      0.0028     -2.1870

 General Reference for PM7:
 "Optimization of Parameters for Semiempirical Methods VI: More Modifications to the 
 NDDO Approximations and Re-optimization of Parameters", J. J. P. Stewart, J. Mol. Mod., 1:32, 19 (2013)
 https://link.springer.com/article/10.1007/s00894-012-1667-x

           Empirical Formula: C H3 Cl2  =     6 atoms



      MOLECULAR POINT GROUP   :   D3h 


      RHF CALCULATION, NO. OF DOUBLY OCCUPIED LEVELS = 11



          HEAT OF FORMATION =    -143.456321 KCALS/MOLE


          CARTESIAN COORDINATE DERIVATIVES

   NUMBER  ATOM         X            Y            Z

     1       C      0.017263     0.043142     0.024700
     2       H      0.170251    -0.037986    -0.023290
     3       H     -0.097275     0.141238    -0.138745
     4       H     -0.069452    -0.146373     0.034511
     5      Cl     -0.008965     0.011136     0.082783
     6      Cl     -0.011823    -0.011158     0.020048
 


          GRADIENT NORM =   0.34288

          MOLECULAR WEIGHT =   85.94



          ROTATIONAL CONSTANTS IN CM(-1)

          A =    4.73047641   B =    0.04944622   C =    0.04944615



           PRINCIPAL MOMENTS OF INERTIA IN UNITS OF 10**(-40)*GRAM-CM**2

          A =        5.9175   B =      566.1256   C =      566.1264


          ORIENTATION OF MOLECULE IN FORCE CALCULATION

    NO.       ATOM         X         Y         Z

     1          C      -0.0002    0.0004    0.0000
     2          H       1.0854    0.0004    0.0000
     3          H      -0.5430    0.9407    0.0000
     4          H      -0.5428   -0.9398   -0.0009
     5         Cl      -0.0001   -0.0035    2.1870
     6         Cl       0.0001    0.0033   -2.1870


    FIRST DERIVATIVES WILL BE USED IN THE CALCULATION OF SECOND DERIVATIVES

          ESTIMATED TIME TO COMPLETE CALCULATION =        0.56 SECONDS

    FOR POINT-GROUP D3h  THERE ARE  12 UNIQUE SYMMETRY FUNCTIONS.

 STEP:   1 TIME =     0.02 SECS, INTEGRAL =      0.02 TIME LEFT: 172799.98
 STEP:   2 TIME =     0.03 SECS, INTEGRAL =      0.05 TIME LEFT: 172799.95
 STEP:   3 TIME =     0.02 SECS, INTEGRAL =      0.06 TIME LEFT: 172799.94
 STEP:   4 TIME =     0.02 SECS, INTEGRAL =      0.08 TIME LEFT: 172799.92
 STEP:   5 TIME =     0.03 SECS, INTEGRAL =      0.11 TIME LEFT: 172799.89
 STEP:   6 TIME =     0.02 SECS, INTEGRAL =      0.12 TIME LEFT: 172799.88
 STEP:   7                       INTEGRAL =      0.12 TIME LEFT: 172799.88
 STEP:   8                       INTEGRAL =      0.12 TIME LEFT: 172799.88
 STEP:   9                       INTEGRAL =      0.12 TIME LEFT: 172799.88
 STEP:  10                       INTEGRAL =      0.12 TIME LEFT: 172799.88
 STEP:  11                       INTEGRAL =      0.12 TIME LEFT: 172799.88
 STEP:  12                       INTEGRAL =      0.12 TIME LEFT: 172799.88
 STEP:  13 TIME =     0.02 SECS, INTEGRAL =      0.14 TIME LEFT: 172799.86
 STEP:  14 TIME =     0.02 SECS, INTEGRAL =      0.16 TIME LEFT: 172799.84
 STEP:  15 TIME =     0.02 SECS, INTEGRAL =      0.17 TIME LEFT: 172799.83
 STEP:  16                       INTEGRAL =      0.17 TIME LEFT: 172799.83
 STEP:  17                       INTEGRAL =      0.17 TIME LEFT: 172799.83
 STEP:  18                       INTEGRAL =      0.17 TIME LEFT: 172799.83

(To convert to Hartree/Bohr^2, multiply by (10^(-21) x N x a0^2)/(4.184 x 627.51) =  0.0642)


           FORCE MATRIX IN MILLIDYNES/ANGSTROM


                  C  1       H  2       H  3       H  4      Cl  5      Cl  6
 ------------------------------------------------------------------------------
     C    1   9.259339
     H    2   3.505549   4.038955
     H    3   3.509569   0.405437   4.038955
     H    4   3.509154   0.402272   0.405437   4.038955
    Cl    5   1.146168   0.426865   0.427804   0.426903   0.735488
    Cl    6   1.145678   0.429411   0.429411   0.429411   0.657442   0.735488


          HEAT OF FORMATION =    -143.456321 KCALS/MOLE

          ZERO POINT ENERGY      20.741 KCAL/MOL

         NOTE: SYSTEM IS NOT A GROUND STATE, THEREFORE ZERO POINT
         ENERGY IS NOT MEANINGFULL. ZERO POINT ENERGY PRINTED
         DOES NOT INCLUDE THE  1 IMAGINARY FREQUENCIES


           NORMAL COORDINATE ANALYSIS (Total motion = 1 Angstrom)


   Root No.       1         2         3         4         5         6         7         8

                 1 A2"     1 E'      1 E'      1 A1'     1 E"      1 E"      2 E'      2 E'  

                -559.3     198.1     198.1     255.0    1046.1    1046.1    1260.2    1260.2
  
           1   -0.0000    0.2064   -0.0724    0.0000    0.0000    0.0000   -0.0442   -0.0425
           2   -0.0011    0.0724    0.2064    0.0000    0.0000    0.0000   -0.0420    0.0448
           3    0.7352    0.0001    0.0003   -0.0000   -0.0000    0.0000   -0.0001    0.0001
           4   -0.0000    0.2063   -0.0724    0.0124   -0.0000    0.0000   -0.0240   -0.0230
           5   -0.0000    0.0799    0.2260    0.0000   -0.0008    0.0002    0.3302   -0.3523
           6    0.0051    0.0001    0.0003    0.0000    0.4946   -0.1219    0.0005   -0.0005
           7   -0.0000    0.2236   -0.0691   -0.0062    0.0000   -0.0000    0.4078    0.0819
           8   -0.0000    0.0824    0.2082    0.0108    0.0002   -0.0008    0.2266    0.0849
           9    0.0051    0.0001    0.0003    0.0000   -0.1430    0.4945    0.0004    0.0001
          10   -0.0000    0.2186   -0.0861   -0.0062    0.0000    0.0000    0.1022    0.4080
          11   -0.0000    0.0653    0.2142   -0.0108    0.0005    0.0006   -0.0956   -0.2245
          12    0.0051    0.0001    0.0003   -0.0000   -0.3516   -0.3727   -0.0001   -0.0003
          13   -0.0000   -0.0442    0.0155    0.0000    0.0052   -0.0013    0.0006    0.0006
          14    0.0002   -0.0155   -0.0442    0.0007    0.0013    0.0053    0.0006   -0.0006
          15   -0.1248   -0.0000   -0.0001   -0.4813    0.0000    0.0000    0.0000   -0.0000
          16    0.0000   -0.0442    0.0155   -0.0000   -0.0052    0.0013    0.0006    0.0006
          17    0.0002   -0.0155   -0.0442   -0.0007   -0.0013   -0.0053    0.0005   -0.0006
          18   -0.1248   -0.0000   -0.0001    0.4813   -0.0000   -0.0000    0.0000   -0.0000


   Root No.       9        10        11        12

                 2 A2"     3 E'      3 E'      2 A1' 

                1270.2    2644.5    2644.5    2685.7
  
           1    0.0000   -0.0012   -0.0560    0.0000
           2    0.0000   -0.0624    0.0011    0.0000
           3   -0.0122   -0.0001   -0.0000   -0.0000
           4   -0.0000    0.0106    0.4710    0.3331
           5   -0.0005   -0.0268    0.0006    0.0000
           6    0.3215   -0.0000    0.0000    0.0000
           7   -0.0000   -0.2365    0.1041   -0.1666
           8   -0.0005    0.3818   -0.2214    0.2885
           9    0.3215    0.0006   -0.0003    0.0004
          10   -0.0000    0.2408    0.0953   -0.1665
          11   -0.0005    0.3915    0.2074   -0.2885
          12    0.3215    0.0006    0.0003   -0.0005
          13   -0.0000   -0.0000   -0.0000   -0.0000
          14    0.0000   -0.0000   -0.0000    0.0000
          15   -0.0116   -0.0000   -0.0000    0.0004
          16    0.0000    0.0000   -0.0000    0.0000
          17    0.0000   -0.0000    0.0000   -0.0000
          18   -0.0116   -0.0000    0.0000   -0.0004


           MASS-WEIGHTED COORDINATE ANALYSIS (NORMAL COORDINATES)


   Root No.       1         2         3         4         5         6         7         8

                 1 A2"     1 E'      1 E'      1 A1'     1 E"      1 E"      2 E'      2 E'  

                -559.3     198.1     198.1     255.0    1046.1    1046.1    1260.2    1260.2
  
           1   -0.0000    0.7586   -0.2662    0.0000    0.0000    0.0000   -0.2440   -0.2316
           2   -0.0014    0.2662    0.7586    0.0000    0.0000    0.0000   -0.2316    0.2440
           3    0.9245    0.0004    0.0012   -0.0000   -0.0000    0.0000   -0.0004    0.0004
           4   -0.0000    0.2197   -0.0771    0.0031   -0.0000    0.0000   -0.0384   -0.0363
           5   -0.0000    0.0851    0.2407    0.0000   -0.0012    0.0003    0.5279   -0.5564
           6    0.0019    0.0001    0.0004    0.0000    0.7912   -0.1929    0.0008   -0.0009
           7   -0.0000    0.2381   -0.0735   -0.0015    0.0000   -0.0000    0.6520    0.1293
           8   -0.0000    0.0877    0.2217    0.0027    0.0004   -0.0012    0.3624    0.1340
           9    0.0018    0.0001    0.0003    0.0000   -0.2286    0.7816    0.0006    0.0002
          10   -0.0000    0.2327   -0.0917   -0.0015    0.0000    0.0000    0.1634    0.6445
          11   -0.0000    0.0696    0.2281   -0.0027    0.0009    0.0009   -0.1528   -0.3546
          12    0.0019    0.0001    0.0003   -0.0000   -0.5626   -0.5888   -0.0002   -0.0005
          13   -0.0000   -0.2790    0.0979    0.0000    0.0497   -0.0121    0.0055    0.0052
          14    0.0005   -0.0979   -0.2790    0.0011    0.0121    0.0497    0.0053   -0.0055
          15   -0.2695   -0.0002   -0.0004   -0.7071    0.0000    0.0001    0.0000   -0.0000
          16    0.0000   -0.2790    0.0979   -0.0000   -0.0497    0.0121    0.0055    0.0052
          17    0.0004   -0.0979   -0.2790   -0.0011   -0.0121   -0.0497    0.0052   -0.0055
          18   -0.2695   -0.0002   -0.0004    0.7071   -0.0000   -0.0001    0.0000   -0.0000


   Root No.       9        10        11        12

                 2 A2"     3 E'      3 E'      2 A1' 

                1270.2    2644.5    2644.5    2685.7
  
           1    0.0000   -0.0063   -0.3173    0.0000
           2    0.0001   -0.3173    0.0063    0.0000
           3   -0.0744   -0.0005   -0.0000   -0.0000
           4   -0.0000    0.0156    0.7731    0.5773
           5   -0.0009   -0.0395    0.0009    0.0000
           6    0.5671   -0.0001    0.0000    0.0000
           7   -0.0000   -0.3487    0.1708   -0.2887
           8   -0.0009    0.5628   -0.3633    0.5000
           9    0.5671    0.0009   -0.0006    0.0008
          10   -0.0000    0.3550    0.1565   -0.2886
          11   -0.0009    0.5771    0.3405   -0.5000
          12    0.5671    0.0009    0.0005   -0.0008
          13   -0.0000   -0.0000   -0.0004   -0.0000
          14    0.0002   -0.0004   -0.0000    0.0000
          15   -0.1218   -0.0000   -0.0000    0.0038
          16    0.0000    0.0000   -0.0004    0.0000
          17    0.0002   -0.0004    0.0000   -0.0000
          18   -0.1218   -0.0000    0.0000   -0.0038


          DESCRIPTION OF VIBRATIONS


 VIBRATION          1    1A2"        ATOM PAIR     ENERGY CONTRIBUTION    RADIAL
 FREQUENCY          -559.29         C 1 -- Cl5         -22.2% (-92.0%)    100.0%
 TRANSITION DIPOLE  15.2802         C 1 -- Cl6         -22.2% (-92.0%)    100.0%
 TRAVEL (Ang.)       0.1148         C 1 -- H 4         -18.5% (-84.1%)      0.0%
 REDUCED MASS        9.1484         C 1 -- H 2         -18.5% (-84.1%)      0.0%
 EFFECTIVE MASS     14.5227         C 1 -- H 3         -18.5% (-84.1%)      0.0%
 FORCE CONSTANT     -1.6860

 VIBRATION          3    1E'         ATOM PAIR     ENERGY CONTRIBUTION    RADIAL
 FREQUENCY           198.09         C 1 -- Cl6         +24.3% (389.2%)      0.0%
 TRANSITION DIPOLE   1.0915         C 1 -- Cl5         +24.3% (389.2%)      0.0%
 TRAVEL (Ang.)       0.2472         C 1 -- H 2         +20.4% (356.3%)     11.8%
 REDUCED MASS        5.5697         C 1 -- H 4         +17.7% (332.4%)     44.4%
 EFFECTIVE MASS    101.1794         C 1 -- H 3         +13.2% (286.9%)     96.8%
 FORCE CONSTANT      0.1288

 VIBRATION          4    1A1'        ATOM PAIR     ENERGY CONTRIBUTION    RADIAL
 FREQUENCY           254.99         C 1 -- Cl5         +49.7% ( 51.0%)    100.0%
 TRANSITION DIPOLE   0.0000         C 1 -- Cl6         +49.7% ( 51.0%)    100.0%
 TRAVEL (Ang.)       0.1221         C 1 -- H 2          +0.2% (  3.1%)    100.0%
 REDUCED MASS       17.7255         C 1 -- H 3          +0.2% (  3.1%)    100.0%
 EFFECTIVE MASS     35.5287
 FORCE CONSTANT      0.6791

 VIBRATION          6    1E"         ATOM PAIR     ENERGY CONTRIBUTION    RADIAL
 FREQUENCY          1046.08         C 1 -- H 3         +61.4% ( 83.4%)      0.0%
 TRANSITION DIPOLE   0.0000         C 1 -- H 4         +34.8% ( 62.8%)      0.0%
 TRAVEL (Ang.)       0.3593         C 1 -- H 2          +3.7% ( 20.6%)      0.0%
 REDUCED MASS        0.4992
 EFFECTIVE MASS      1.0607
 FORCE CONSTANT      0.3218

 VIBRATION          8    2E'         ATOM PAIR     ENERGY CONTRIBUTION    RADIAL
 FREQUENCY          1260.16         C 1 -- H 4         +49.6% ( 69.1%)      0.6%
 TRANSITION DIPOLE   0.3773         C 1 -- H 2         +30.1% ( 53.9%)      5.6%
 TRAVEL (Ang.)       0.3126         C 1 -- Cl6          +6.7% ( 25.5%)      0.0%
 REDUCED MASS        0.5476         C 1 -- Cl5          +6.7% ( 25.5%)      0.0%
 EFFECTIVE MASS      1.9626
 FORCE CONSTANT      0.5124

 VIBRATION          9    2A2"        ATOM PAIR     ENERGY CONTRIBUTION    RADIAL
 FREQUENCY          1270.18         C 1 -- H 4         +33.3% ( 50.1%)      0.0%
 TRANSITION DIPOLE   0.9964         C 1 -- H 2         +33.3% ( 50.1%)      0.0%
 TRAVEL (Ang.)       0.4019         C 1 -- H 3         +33.3% ( 50.1%)      0.0%
 REDUCED MASS        0.3287
 EFFECTIVE MASS      1.3511
 FORCE CONSTANT      0.3124

 VIBRATION         11    3E'         ATOM PAIR     ENERGY CONTRIBUTION    RADIAL
 FREQUENCY          2644.52         C 1 -- H 2         +63.9% ( 83.3%)    100.0%
 TRANSITION DIPOLE   0.8737         C 1 -- H 3         +17.9% ( 44.1%)     84.9%
 TRAVEL (Ang.)       0.2198         C 1 -- H 4         +15.7% ( 41.4%)     82.4%
 REDUCED MASS        0.5280         C 1 -- Cl5          +1.2% ( 11.4%)      0.0%
 EFFECTIVE MASS      1.5852
 FORCE CONSTANT      2.1756

 VIBRATION         12    2A1'        ATOM PAIR     ENERGY CONTRIBUTION    RADIAL
 FREQUENCY          2685.66         C 1 -- H 4         +33.3% ( 55.2%)    100.0%
 TRANSITION DIPOLE   0.0000         C 1 -- H 2         +33.3% ( 55.2%)    100.0%
 TRAVEL (Ang.)       0.2734         C 1 -- H 3         +33.3% ( 55.2%)    100.0%
 REDUCED MASS        0.3359
 EFFECTIVE MASS      1.0082
 FORCE CONSTANT      1.4277

           FORCE CONSTANT IN INTERNAL COORDINATES (Millidynes/A)

    ATOM   CHEMICAL  BOND LENGTH      BOND ANGLE     TWIST ANGLE
   NUMBER   SYMBOL  FORCE CONSTANT  FORCE CONSTANT  FORCE CONSTANT

      1       C        0.000000        0.000000        0.000000
      2       H        3.914878        0.000000        0.000000
      3       H        3.914872        0.660198        0.000000
      4       H        3.914877        0.660103        0.653345
      5      Cl        0.706291        0.666462        0.666462
      6      Cl        0.706291        0.666462        0.666462
 *******************************************************************************
 ** Site#: 37037        For non-commercial use only           Version 21.153W **
 *******************************************************************************
 ** Cite this program as: MOPAC2016, Version: 21.153W, James J. P. Stewart,   **
 ** Stewart Computational Chemistry, web: HTTP://OpenMOPAC.net. Days left: 364**
 *******************************************************************************
 **                                                                           **
 **                                MOPAC2016                                  **
 **                                                                           **
 *******************************************************************************

                              PM7 CALCULATION RESULTS

 *******************************************************************************
 *  CALCULATION DONE:                                Thu Jun  3 15:17:30 2021  *
 *
 *
 *
 *                 CHARGE ON SYSTEM = -1
 *
 *
 *
 *  EPS=78.4   - USE ANDREAS KLAMT'S COSMO IMPLICIT SOLVATION MODEL
 *  IRC=N      - INTRINSIC REACTION COORDINATE  1 DEFINED
 *  OLDGEO     - PREVIOUS GEOMETRY TO BE USED
 *  RESTART    - CALCULATION RESTARTED
 *  T=         - A TIME OF 172800.0 SECONDS REQUESTED
 *  DUMP=N     - RESTART FILE WRITTEN EVERY 7200.0 SECONDS REQUESTED
 *  ISOTOPE    - SAVE THE FORCE MATRIX FOR USE LATER
 *  HTML       - WRITE HTML SCRIPT TO GENERATE ANIMATION USING JSMOL
 *             - TO DISPLAY IN PDB FORMAT, ADD "PDBOUT"
 *  X-PRIOR    - GEOMETRY CHANGES TAKE PRIORITY IN DRC
 *******************************************************************************
oldgeo charge=-1 eps=78.4 charge=-1 IRC=1* x-priority=0.02  restart isotope html
 Transition state for CH3Cl --- Cl(-) <=> Cl(-) --- CH3Cl

  ATOM    CHEMICAL      BOND LENGTH      BOND ANGLE     TWIST ANGLE 
 NUMBER    SYMBOL       (ANGSTROMS)      (DEGREES)       (DEGREES) 
   (I)                     NA:I           NB:NA:I       NC:NB:NA:I       NA    NB    NC 
     1       C          0.00000001  *    0.0000000  *   -0.0000002  *     0     0     0
     2       H          1.08558084  *   -0.0000000  *   -0.0000000  *     1     0     0
     3       H          1.08567326  *  120.0002854  *   -0.0000000  *     1     2     0
     4       H          1.08559511  *  119.9926240  *  179.9442806  *     1     2     3
     5      Cl          2.18701887  *   89.9973549  *  -90.1018383  *     1     2     3
     6      Cl          2.18701887      89.9927602  *   89.9256813  *     1     2     3
 


          CARTESIAN COORDINATES 

    NO.       ATOM           X           Y           Z

     1         C          0.0000      0.0000     -0.0000
     2         H          1.0856      0.0000     -0.0000
     3         H         -0.5428      0.9402     -0.0000
     4         H         -0.5427     -0.9402     -0.0009
     5        Cl          0.0001     -0.0039      2.1870
     6        Cl          0.0003      0.0028     -2.1870

 General Reference for PM7:
 "Optimization of Parameters for Semiempirical Methods VI: More Modifications to the 
 NDDO Approximations and Re-optimization of Parameters", J. J. P. Stewart, J. Mol. Mod., 1:32, 19 (2013)
 https://link.springer.com/article/10.1007/s00894-012-1667-x

           Empirical Formula: C H3 Cl2  =     6 atoms



      MOLECULAR POINT GROUP   :   D3h 


      RHF CALCULATION, NO. OF DOUBLY OCCUPIED LEVELS = 11


          MOLECULAR WEIGHT =   85.94


          ESTIMATED TIME TO COMPLETE CALCULATION =        0.00 SECONDS

          TIME USED UP TO RESTART =                  0.17

    FOR POINT-GROUP D3h  THERE ARE  12 UNIQUE SYMMETRY FUNCTIONS.

           INITIAL VELOCITY IN DRC (Angstroms/Femtosecond)
        -0.00003        -0.00114         0.73521
        -0.00000        -0.00001         0.00510
        -0.00000        -0.00001         0.00507
        -0.00000        -0.00001         0.00510
        -0.00001         0.00022        -0.12476
         0.00002         0.00016        -0.12476

 GEOMETRY PRIORITY, STEP = 0.0200 ANGSTROMS



     POINT   POTENTIAL  +  ENERGY LOST   =   TOTAL      ERROR    REF%   MOVEMENT
       1    -143.45633      0.00000       -143.45633   0.00000     1   %  0.0000
      19    -143.48675      0.01322       -143.47353   0.03011     2   %  0.0197
      26    -143.59023      0.11392       -143.47631   0.02733     3   %  0.0399
      30    -143.75905      0.27189       -143.48716   0.01648     4   %  0.0588
      34    -144.00093      0.50697       -143.49397   0.00967     5   %  0.0791
      39    -144.33735      0.79531       -143.54204  -0.03840     6   %  0.0991
      48    -144.63876      1.08026       -143.55851  -0.05486     7   %  0.1161
      53    -145.01942      1.45512       -143.56430  -0.06066     8   %  0.1364
      55    -145.36687      1.80347       -143.56339  -0.05975     9   %  0.1539
      58    -145.82966      2.33113       -143.49853   0.00511    10   %  0.1788
      64    -146.29511      2.78774       -143.50737  -0.00372    11   %  0.1988
      68    -146.73732      3.23913       -143.49818   0.00546    12   %  0.2180
      76    -147.24706      3.73627       -143.51078  -0.00714    13   %  0.2387
      89    -147.79776      4.21097       -143.58678  -0.08314    14   %  0.2583
      95    -148.20452      4.61605       -143.58848  -0.08484    15   %  0.2749
     104    -148.68778      5.18006       -143.50772  -0.00408    16   %  0.2984
     110    -149.17347      5.65227       -143.52120  -0.01756    17   %  0.3183
     113    -149.63947      6.11310       -143.52636  -0.02272    18   %  0.3381
     115    -150.09178      6.56034       -143.53144  -0.02780    19   %  0.3580
     117    -150.37771      6.84553       -143.53218  -0.02854    20   %  0.3711
     120    -150.88763      7.34101       -143.54662  -0.04297    21   %  0.3947
     126    -151.32260      7.78454       -143.53806  -0.03442    22   %  0.4173
     132    -151.69010      8.14222       -143.54788  -0.04424    23   %  0.4366
     139    -152.07405      8.49174       -143.58231  -0.07867    24   %  0.4566
     145    -152.38120      8.81183       -143.56938  -0.06573    25   %  0.4763
     153    -152.68076      9.10907       -143.57170  -0.06806    26   %  0.4960
     157    -152.95828      9.38538       -143.57290  -0.06926    27   %  0.5156
     163    -153.21657      9.63753       -143.57904  -0.07540    28   %  0.5349
     168    -153.43003      9.84311       -143.58693  -0.08328    29   %  0.5520
     174    -153.69029     10.08999       -143.60030  -0.09666    30   %  0.5741
     178    -153.89149     10.28192       -143.60958  -0.10594    31   %  0.5926
     184    -154.08050     10.45682       -143.62368  -0.12004    32   %  0.6106
     188    -154.24407     10.61777       -143.62630  -0.12266    33   %  0.6278
     195    -154.40894     10.76855       -143.64039  -0.13675    34   %  0.6442
     200    -154.54733     10.89737       -143.64995  -0.14631    35   %  0.6583
     209    -154.72716     11.05173       -143.67543  -0.17179    36   %  0.6749
     214    -154.85629     11.17165       -143.68464  -0.18099    37   %  0.6876
     223    -155.00469     11.32255       -143.68214  -0.17850    38   %  0.7032
     229    -155.14920     11.45504       -143.69416  -0.19052    39   %  0.7166
     235    -155.28591     11.58525       -143.70067  -0.19703    40   %  0.7297
     241    -155.42705     11.71346       -143.71360  -0.20995    41   %  0.7426
     247    -155.56167     11.83694       -143.72473  -0.22108    42   %  0.7552
     253    -155.69668     11.95796       -143.73872  -0.23508    43   %  0.7678
     260    -155.81298     12.07496       -143.73802  -0.23438    44   %  0.7803
     267    -155.94159     12.18836       -143.75323  -0.24959    45   %  0.7928
     272    -156.06010     12.29769       -143.76241  -0.25877    46   %  0.8053
     279    -156.15557     12.40354       -143.75203  -0.24838    47   %  0.8179
     285    -156.26893     12.50497       -143.76396  -0.26032    48   %  0.8346
     292    -156.37444     12.60285       -143.77160  -0.26795    49   %  0.8542
     298    -156.48099     12.69587       -143.78512  -0.28148    50   %  0.8735
     304    -156.57739     12.78698       -143.79041  -0.28677    51   %  0.8932
     309    -156.67615     12.87417       -143.80199  -0.29834    52   %  0.9128
     315    -156.76779     12.95770       -143.81009  -0.30645    53   %  0.9324
     322    -156.85280     13.02710       -143.82570  -0.32206    54   %  0.9492
     331    -156.91900     13.11517       -143.80383  -0.30018    55   %  0.9716
     338    -157.00429     13.18909       -143.81520  -0.31156    56   %  0.9911
     344    -157.08907     13.26005       -143.82903  -0.32539    57   %  1.0107
     350    -157.16930     13.32810       -143.84120  -0.33756    58   %  1.0304
     358    -157.24616     13.39332       -143.85285  -0.34921    59   %  1.0500
     364    -157.32016     13.45577       -143.86440  -0.36075    60   %  1.0696
     371    -157.39498     13.51565       -143.87933  -0.37569    61   %  1.0893
     377    -157.46391     13.57300       -143.89091  -0.38727    62   %  1.1089
     383    -157.51919     13.62802       -143.89117  -0.38753    63   %  1.1286
     390    -157.57824     13.68007       -143.89818  -0.39454    64   %  1.1480
     397    -157.63217     13.72630       -143.90587  -0.40223    65   %  1.1659
     405    -157.69623     13.78410       -143.91213  -0.40849    66   %  1.1860
     411    -157.73230     13.84660       -143.88570  -0.38206    67   %  1.1992
     418    -157.78994     13.89220       -143.89774  -0.39410    68   %  1.2194
     423    -157.82961     13.92853       -143.90108  -0.39744    69   %  1.2330
     433    -157.88657     13.99121       -143.89536  -0.39171    70   %  1.2553
     446    -157.93849     14.09263       -143.84586  -0.34222    71   %  1.2772
     451    -157.97544     14.12130       -143.85414  -0.35050    72   %  1.2918
     461    -158.01301     14.18283       -143.83018  -0.32653    73   %  1.3123
     466    -158.04156     14.20805       -143.83351  -0.32987    74   %  1.3282
     479    -158.09088     14.30915       -143.78173  -0.27809    75   %  1.3474
     490    -158.14615     14.35717       -143.78898  -0.28534    76   %  1.3707
     502    -158.18480     14.42802       -143.75678  -0.25314    77   %  1.3902
     506    -158.20351     14.44200       -143.76152  -0.25788    78   %  1.3997
     507    -158.21005     14.45090       -143.75915  -0.25551    79   %  1.4089
     508    -157.99135     14.54748       -143.44387   0.05977    80   %  1.3888
     509    -158.16840     14.76694       -143.40145   0.10219    81   %  1.3998
     515    -158.22289     14.82095       -143.40194   0.10170    82   %  1.4099
     522    -158.24466     14.83721       -143.40745   0.09619    83   %  1.4217
     524    -158.19616     14.90715       -143.28900   0.21464    84   %  1.4179
     534    -158.27044     14.98235       -143.28809   0.21555    85   %  1.4358
     538    -158.28875     14.99621       -143.29254   0.21110    86   %  1.4461
     551    -158.31990     15.14694       -143.17296   0.33068    87   %  1.4626
     565    -158.33795     15.21984       -143.11811   0.38554    88   %  1.4844
     567    -158.33829     15.22599       -143.11230   0.39134    89   %  1.4857
     584    -158.38793     15.31414       -143.07379   0.42985    90   %  1.5136
     598    -158.40920     15.51737       -142.89183   0.61181    91   %  1.5279
     619    -158.41138     15.59800       -142.81338   0.69026    92   %  1.5436
     622    -158.40718     15.60901       -142.79817   0.70548    93   %  1.5579
     640    -158.42988     15.76747       -142.66241   0.84123    94   %  1.5663
     655    -158.43720     15.85067       -142.58653   0.91712    95   %  1.5816
     677    -158.45462     15.93067       -142.52395   0.97970    96   %  1.5981
     680    -158.46189     15.93706       -142.52483   0.97881    97   %  1.6050
     725    -158.49733     16.59402       -141.90331   1.60033    98   %  1.6422
     740    -158.48632     16.71716       -141.76916   1.73448    99   %  1.6665
     744    -158.47392     17.03132       -141.44261   2.06103   100   %  1.6502
     752    -158.52190     17.07799       -141.44391   2.05973   101   %  1.6606
     768    -158.53261     17.17584       -141.35677   2.14687   102   %  1.6719
     769    -158.52948     17.17995       -141.34953   2.15411   103   %  1.6796
     770    -158.31857     17.30287       -141.01570   2.48794   104   %  1.6575
     773    -158.48570     17.49698       -140.98872   2.51492   105   %  1.6675
     783    -158.54024     17.55021       -140.99003   2.51361   106   %  1.6793
     786    -158.52609     17.55851       -140.96758   2.53606   107   %  1.6915
     791    -158.53734     17.81213       -140.72521   2.77843   108   %  1.6826
     799    -158.54410     17.80059       -140.74350   2.76014   109   %  1.7012
     803    -158.53484     17.98398       -140.55086   2.95278   110   %  1.6883
     812    -158.55400     18.00390       -140.55011   2.95354   111   %  1.6963
     827    -158.55834     18.11390       -140.44444   3.05920   112   %  1.7034
     845    -158.55871     18.33226       -140.22646   3.27718   113   %  1.7140
     874    -158.58939     18.63203       -139.95736   3.54628   114   %  1.7270
     887    -158.59593     18.68302       -139.91291   3.59073   115   %  1.7373
     920    -158.60134     19.71712       -138.88422   4.61942   116   %  1.7524
    1056    -158.63262     23.10133       -135.53129   7.97235   117   %  1.7953
    1071    -158.63523     23.37170       -135.26353   8.24011   118   %  1.7993
    1148    -158.62206     24.55632       -134.06574   9.43790   119   %  1.8150
    1156    -158.65278     24.76527       -133.88751   9.61613   120   %  1.8234
    1168    -158.64202     24.77189       -133.87013   9.63351   121   %  1.8305
    1183    -158.65434     25.12888       -133.52546   9.97818   122   %  1.8277
    1257    -158.66557     26.22278       -132.44278  11.06086   123   %  1.8459
    1272    -158.66737     26.42211       -132.24527  11.25837   124   %  1.8492
    1302    -158.67064     26.82281       -131.84783  11.65581   125   %  1.8551
    1399    -158.67999     28.22226       -130.45773  13.04592   126   %  1.8759
    1477    -158.67942     30.11463       -128.56480  14.93885   127   %  1.8832
    1494    -158.68831     30.31654       -128.37178  15.13187   128   %  1.8900


           POTENTIAL ENERGY HAS STOPPED DROPPING

           INITIAL VELOCITY IN DRC (Angstroms/Femtosecond)
         0.00003         0.00114        -0.73521
         0.00000         0.00001        -0.00510
         0.00000         0.00001        -0.00507
         0.00000         0.00001        -0.00510
         0.00001        -0.00022         0.12476
        -0.00002        -0.00016         0.12476

 GEOMETRY PRIORITY, STEP = 0.0200 ANGSTROMS



     POINT   POTENTIAL  +  ENERGY LOST   =   TOTAL      ERROR    REF%   MOVEMENT
       1    -143.45633      0.00000       -143.45633   0.00000     1   %  0.0000
      19    -143.52684      0.01470       -143.51213  -0.03562     2   %  0.0200
      30    -143.60811      0.10238       -143.50573  -0.02921     3   %  0.0380
      33    -143.79163      0.27811       -143.51352  -0.03701     4   %  0.0594
      36    -144.02675      0.50674       -143.52001  -0.04350     5   %  0.0789
      42    -144.31038      0.77989       -143.53050  -0.05398     6   %  0.0978
      51    -144.63127      1.12396       -143.50731  -0.03079     7   %  0.1182
      56    -144.91434      1.40582       -143.50852  -0.03201     8   %  0.1332
      59    -145.31854      1.85414       -143.46440   0.01212     9   %  0.1555
      70    -145.80769      2.33783       -143.46986   0.00666    10   %  0.1777
      79    -146.27238      2.79494       -143.47744  -0.00092    11   %  0.1976
      83    -146.64320      3.16964       -143.47356   0.00296    12   %  0.2134
      87    -147.22704      3.74566       -143.48138  -0.00486    13   %  0.2373
      98    -147.77849      4.21912       -143.55937  -0.08286    14   %  0.2568
     103    -148.16588      4.60258       -143.56329  -0.08678    15   %  0.2725
     116    -148.62369      5.13148       -143.49221  -0.01570    16   %  0.2945
     120    -149.12938      5.62423       -143.50515  -0.02863    17   %  0.3152
     124    -149.62930      6.11774       -143.51156  -0.03505    18   %  0.3365
     127    -150.08185      6.56180       -143.52004  -0.04353    19   %  0.3562
     131    -150.47206      6.95179       -143.52028  -0.04376    20   %  0.3742
     135    -150.87893      7.34125       -143.53768  -0.06116    21   %  0.3929
     139    -151.21492      7.67923       -143.53569  -0.05918    22   %  0.4100
     143    -151.63292      8.09690       -143.53602  -0.05950    23   %  0.4321
     149    -152.06603      8.49879       -143.56724  -0.09072    24   %  0.4550
     159    -152.35319      8.81577       -143.53742  -0.06090    25   %  0.4743
     166    -152.66188      9.11994       -143.54194  -0.06542    26   %  0.4942
     168    -152.94974      9.40851       -143.54123  -0.06471    27   %  0.5145
     170    -153.19414      9.65515       -143.53899  -0.06248    28   %  0.5330
     172    -153.44142      9.90309       -143.53833  -0.06181    29   %  0.5531
     173    -153.65372     10.11802       -143.53571  -0.05919    30   %  0.5720
     174    -153.85258     10.31512       -143.53746  -0.06094    31   %  0.5907
     176    -153.96839     10.42912       -143.53927  -0.06276    32   %  0.6021
     179    -154.20193     10.65762       -143.54431  -0.06779    33   %  0.6262
     183    -154.36220     10.80922       -143.55298  -0.07647    34   %  0.6427
     187    -154.49029     10.93131       -143.55898  -0.08247    35   %  0.6560
     194    -154.67181     11.09367       -143.57814  -0.10163    36   %  0.6734
     199    -154.81781     11.23026       -143.58755  -0.11104    37   %  0.6877
     204    -154.96133     11.36567       -143.59566  -0.11914    38   %  0.7015
     208    -155.10511     11.50050       -143.60462  -0.12810    39   %  0.7150
     213    -155.24535     11.62977       -143.61558  -0.13906    40   %  0.7279
     218    -155.36662     11.74225       -143.62437  -0.14785    41   %  0.7391
     224    -155.52210     11.88269       -143.63942  -0.16290    42   %  0.7533
     230    -155.65929     12.00410       -143.65518  -0.17867    43   %  0.7659
     235    -155.76410     12.10067       -143.66343  -0.18692    44   %  0.7761
     242    -155.91115     12.22748       -143.68367  -0.20715    45   %  0.7900
     250    -156.03444     12.34492       -143.68952  -0.21300    46   %  0.8034
     255    -156.14084     12.45081       -143.69004  -0.21352    47   %  0.8159
     261    -156.24512     12.55282       -143.69230  -0.21578    48   %  0.8322
     267    -156.35342     12.65097       -143.70244  -0.22593    49   %  0.8517
     274    -156.45346     12.74548       -143.70798  -0.23146    50   %  0.8713
     282    -156.55498     12.83610       -143.71888  -0.24236    51   %  0.8908
     288    -156.64739     12.92305       -143.72434  -0.24782    52   %  0.9103
     294    -156.74369     13.00736       -143.73632  -0.25981    53   %  0.9299
     300    -156.82610     13.08328       -143.74283  -0.26631    54   %  0.9483
     307    -156.89990     13.16561       -143.73429  -0.25778    55   %  0.9691
     313    -156.98508     13.23989       -143.74518  -0.26867    56   %  0.9887
     319    -157.07118     13.31122       -143.75996  -0.28345    57   %  1.0084
     325    -157.15117     13.37958       -143.77160  -0.29508    58   %  1.0280
     331    -157.21982     13.44520       -143.77462  -0.29810    59   %  1.0476
     338    -157.29662     13.50802       -143.78860  -0.31209    60   %  1.0673
     343    -157.36727     13.56816       -143.79911  -0.32259    61   %  1.0869
     349    -157.43600     13.62593       -143.81007  -0.33355    62   %  1.1066
     355    -157.50157     13.70040       -143.80117  -0.32465    63   %  1.1261
     361    -157.55832     13.74851       -143.80981  -0.33330    64   %  1.1432
     371    -157.50482     13.80866       -143.69615  -0.21964    65   %  1.1639
     379    -157.56388     13.85814       -143.70574  -0.22922    66   %  1.1841
     383    -157.60388     13.89335       -143.71054  -0.23402    67   %  1.1983
     384    -157.62012     13.91016       -143.70996  -0.23345    68   %  1.2081
     385    -157.47728     14.01438       -143.46290   0.01362    69   %  1.1937
     390    -157.63736     14.38402       -143.25334   0.22318    70   %  1.2113
     399    -157.68157     14.42346       -143.25811   0.21841    71   %  1.2283
     408    -157.73850     14.49576       -143.24274   0.23378    72   %  1.2504
     414    -157.78198     14.53216       -143.24982   0.22670    73   %  1.2676
     415    -157.79366     14.54603       -143.24763   0.22889    74   %  1.2780
     416    -157.63901     14.63814       -143.00087   0.47565    75   %  1.2604
     419    -157.78271     14.80272       -142.97999   0.49652    76   %  1.2725
     427    -157.83593     14.84687       -142.98906   0.48746    77   %  1.2904
     432    -157.86965     14.87402       -142.99562   0.48090    78   %  1.3051
     433    -157.88080     14.88421       -142.99658   0.47993    79   %  1.3126
     434    -157.73042     14.94386       -142.78656   0.68995    80   %  1.3031
     439    -157.89881     15.19194       -142.70687   0.76964    81   %  1.3180
     449    -157.94343     15.22341       -142.72003   0.75649    82   %  1.3377
     451    -157.95208     15.23553       -142.71656   0.75996    83   %  1.3416
     471    -158.02043     15.36172       -142.65871   0.81780    84   %  1.3756
     475    -158.04048     15.37775       -142.66273   0.81379    85   %  1.3859
     476    -158.04641     15.38842       -142.65799   0.81853    86   %  1.3965
     477    -157.89355     15.49203       -142.40152   1.07500    87   %  1.3774
     482    -158.05063     15.66349       -142.38715   1.08937    88   %  1.3925
     490    -158.08363     15.67992       -142.40370   1.07281    89   %  1.4117
     492    -158.04625     15.76173       -142.28451   1.19200    90   %  1.4052
     502    -158.10397     15.82076       -142.28321   1.19330    91   %  1.4242
     515    -158.14035     15.88593       -142.25442   1.22210    92   %  1.4441
     527    -158.15889     15.94033       -142.21856   1.25795    93   %  1.4600
     530    -158.16943     15.95449       -142.21494   1.26157    94   %  1.4689
     547    -158.19707     16.06270       -142.13437   1.34214    95   %  1.4937
     562    -158.22421     16.20262       -142.02158   1.45493    96   %  1.5110
     579    -158.24832     16.38802       -141.86029   1.61622    97   %  1.5314
     581    -158.07071     16.59512       -141.47559   2.00093    98   %  1.5209
     583    -158.19405     16.71661       -141.47744   1.99908    99   %  1.5281
     593    -158.26354     16.78829       -141.47525   2.00127   100   %  1.5426
     597    -158.27724     16.79746       -141.47978   1.99674   101   %  1.5545
     613    -158.29713     17.16597       -141.13115   2.34536   102   %  1.5774
     621    -158.29888     17.78083       -140.51805   2.95846   103   %  1.5733
     629    -158.31501     17.79334       -140.52167   2.95485   104   %  1.5841
     630    -158.30440     17.80255       -140.50185   2.97466   105   %  1.5962
     632    -158.24756     18.09460       -140.15296   3.32355   106   %  1.5791
     636    -158.31646     18.16365       -140.15281   3.32371   107   %  1.5876
     644    -158.31114     18.15300       -140.15813   3.31838   108   %  1.5927
     652    -158.33811     18.29788       -140.04024   3.43628   109   %  1.6038
     661    -158.33737     18.30682       -140.03056   3.44596   110   %  1.6090
     690    -158.37225     18.52394       -139.84831   3.62820   111   %  1.6357
     691    -158.37133     18.52757       -139.84376   3.63276   112   %  1.6441
     692    -157.72759     18.68924       -139.03835   4.43817   113   %  1.6120
     696    -158.27312     19.35175       -138.92137   4.55515   114   %  1.6306
     699    -158.35860     19.43927       -138.91933   4.55719   115   %  1.6382
     708    -158.38523     19.46457       -138.92066   4.55586   116   %  1.6490
     711    -158.34755     19.65125       -138.69630   4.78021   117   %  1.6451
     720    -158.39166     19.69551       -138.69614   4.78037   118   %  1.6570
     722    -158.39580     19.69783       -138.69796   4.77855   119   %  1.6623
     790    -158.43193     20.47207       -137.95986   5.51665   120   %  1.6988
     823    -158.44697     20.87379       -137.57318   5.90334   121   %  1.7163
     942    -158.33778     21.83353       -136.50424   6.97227   122   %  1.7715
     945    -158.45423     22.14379       -136.31044   7.16607   123   %  1.7544
     955    -158.47972     22.17242       -136.30730   7.16922   124   %  1.7626
     976    -158.40045     22.25569       -136.14476   7.33176   125   %  1.7705


           POTENTIAL ENERGY HAS STOPPED DROPPING


 **********************
 *                    *
 * JOB ENDED NORMALLY *
 *                    *
 **********************



 TOTAL JOB TIME:            26.74 SECONDS

 == MOPAC DONE ==
