 *******************************************************************************
 ** Site#: 29054        For non-commercial use only    Version 18.021W 64BITS **
 *******************************************************************************
 ** Cite this program as: MOPAC2016, Version: 18.021W, James J. P. Stewart,   **
 ** Stewart Computational Chemistry, web: HTTP://OpenMOPAC.net. Days left: 364**
 *******************************************************************************
 **                                                                           **
 **                                MOPAC2016                                  **
 **                                                                           **
 *******************************************************************************

                              PM7 CALCULATION RESULTS


 *******************************************************************************
 *  CALCULATION DONE:                                Mon Jan 22 08:44:33 2018  *
 *  SYMMETRY   - SYMMETRY CONDITIONS TO BE IMPOSED
 *  T=         - A TIME OF 172800.0 SECONDS REQUESTED
 *  DUMP=N     - RESTART FILE WRITTEN EVERY  7200.000 SECONDS
 *******************************************************************************



                    PARAMETER DEPENDENCE DATA

        REFERENCE ATOM      FUNCTION NO.    DEPENDENT ATOM(S)
            2                  1               3

             DESCRIPTIONS OF THE FUNCTIONS USED
   1      BOND LENGTH    IS SET EQUAL TO THE REFERENCE BOND LENGTH   
 
symmetry
 Transition state for Pentadiene <=> Pentadiene

  ATOM    CHEMICAL      BOND LENGTH      BOND ANGLE     TWIST ANGLE 
 NUMBER    SYMBOL       (ANGSTROMS)      (DEGREES)       (DEGREES) 
   (I)                     NA:I           NB:NA:I       NC:NB:NA:I       NA    NB    NC 
     1       C          0.00000000       0.0000000       0.0000000        0     0     0
     2       H          1.40000000  *    0.0000000       0.0000000        1     0     0
     3       C          1.40000000     128.0000000  *    0.0000000        2     1     0
     4       C          1.40000000  *  100.0000000  *   55.0000000  *     3     2     1
     5       H          1.00000000  *   84.0000000  *   65.0000000  *     1     2     3
     6       H          1.00000000  *  114.0000000  *  175.0000000  *     1     2     3
     7       H          2.10000000  *  119.0000000  *  -74.0000000  *     1     2     3
     8       H          2.10000000  *  149.0000000  *  -35.0000000  *     4     3     2
     9       H          1.00000000  *  118.0000000  *  140.0000000  *     4     3     2
    10       H          1.00000000  *   86.0000000  *  -64.0000000  *     3     2     1
    11       H          1.00000000  *  113.0000000  * -176.0000000  *     3     2     1
    12       C          1.00000000  *   34.0000000  *   46.0000000  *     7     1     2
    13       C          1.00000000  *   34.0000000  *    9.0000000  *     8     4     3
 


          CARTESIAN COORDINATES 

    NO.       ATOM           X           Y           Z

     1         C          0.0000      0.0000      0.0000
     2         H          1.4000      0.0000      0.0000
     3         C          2.2619      1.1032      0.0000
     4         C          1.7884      1.7817      1.1294
     5         H          0.1045      0.4203     -0.9013
     6         H         -0.4067     -0.9101     -0.0796
     7         H         -1.0181      0.5063      1.7656
     8         H          0.1725      2.3336      2.3517
     9         H          2.4592      2.2064      1.7374
    10         H          1.8744      1.3175     -0.8966
    11         H          3.2261      0.8458     -0.0642
    12         C         -0.2764      0.7450      1.1387
    13         C          0.4777      1.7656      1.5873

 General Reference for PM7:
 "Optimization of Parameters for Semiempirical Methods VI: More Modifications to the 
 NDDO Approximations and Re-optimization of Parameters", J. J. P. Stewart, J. Mol. Mod., 1:32, 19 (2013)
 http://www.springerlink.com/openurl.asp?genre=article&id=doi:10.1007/s00894-012-1667-x

           Empirical Formula: C5 H8  =    13 atoms



      MOLECULAR POINT GROUP   :   C1  


      RHF CALCULATION, NO. OF DOUBLY OCCUPIED LEVELS = 14


          Geometry optimization using EF

          DIAGONAL MATRIX USED AS START HESSIAN

 CYCLE:     1 TIME:   0.000 TIME LEFT:  2.00D  GRAD.:   456.370 HEAT:  86.40655
 CYCLE:     2 TIME:   0.018 TIME LEFT:  2.00D  GRAD.:   399.872 HEAT:  84.92503
 CYCLE:     3 TIME:   0.000 TIME LEFT:  2.00D  GRAD.:   192.130 HEAT:  73.38163
 CYCLE:     4 TIME:   0.016 TIME LEFT:  2.00D  GRAD.:   244.526 HEAT:  66.83483
 CYCLE:     5 TIME:   0.000 TIME LEFT:  2.00D  GRAD.:   149.896 HEAT:  65.64940
 CYCLE:     6 TIME:   0.000 TIME LEFT:  2.00D  GRAD.:   129.496 HEAT:  63.49439
 CYCLE:     7 TIME:   0.000 TIME LEFT:  2.00D  GRAD.:    70.860 HEAT:  62.60013
 CYCLE:     8 TIME:   0.016 TIME LEFT:  2.00D  GRAD.:    63.294 HEAT:  61.83722
 CYCLE:     9 TIME:   0.000 TIME LEFT:  2.00D  GRAD.:    36.514 HEAT:  61.75869
 CYCLE:    10 TIME:   0.000 TIME LEFT:  2.00D  GRAD.:    27.663 HEAT:  61.68401
 CYCLE:    11 TIME:   0.000 TIME LEFT:  2.00D  GRAD.:    17.353 HEAT:  61.62673
 CYCLE:    12 TIME:   0.000 TIME LEFT:  2.00D  GRAD.:     3.511 HEAT:  61.60348
 CYCLE:    13 TIME:   0.016 TIME LEFT:  2.00D  GRAD.:     8.328 HEAT:  61.58499
 CYCLE:    14 TIME:   0.000 TIME LEFT:  2.00D  GRAD.:     6.223 HEAT:  61.57313
 CYCLE:    15 TIME:   0.000 TIME LEFT:  2.00D  GRAD.:     2.050 HEAT:  61.56712
 CYCLE:    16 TIME:   0.000 TIME LEFT:  2.00D  GRAD.:     3.857 HEAT:  61.56139
 CYCLE:    17 TIME:   0.000 TIME LEFT:  2.00D  GRAD.:     4.134 HEAT:  61.55724
 CYCLE:    18 TIME:   0.000 TIME LEFT:  2.00D  GRAD.:     1.203 HEAT:  61.55409
 CYCLE:    19 TIME:   0.000 TIME LEFT:  2.00D  GRAD.:     0.758 HEAT:  61.55198

     GRADIENT =  0.75752  IS LESS THAN CUTOFF =  1.00000



 -------------------------------------------------------------------------------
 symmetry
 Transition state for Pentadiene <=> Pentadiene



     GEOMETRY OPTIMISED USING EIGENVECTOR FOLLOWING (EF).     
     SCF FIELD WAS ACHIEVED                                   


                              PM7 CALCULATION
                                                       MOPAC2016 (Version: 18.021W)
                                                       Mon Jan 22 08:44:33 2018
                                                       No. of days remaining = 364




          FINAL HEAT OF FORMATION =         61.55197 KCAL/MOL =     257.53346 KJ/MOL


          TOTAL ENERGY            =       -719.44910 EV
          ELECTRONIC ENERGY       =      -2843.37739 EV  POINT GROUP:     Cs  
          CORE-CORE REPULSION     =       2123.92829 EV
          COSMO AREA              =        118.24 SQUARE ANGSTROMS
          COSMO VOLUME            =        105.88 CUBIC ANGSTROMS

          GRADIENT NORM           =          0.75752
          IONIZATION POTENTIAL    =          8.885638 EV
          HOMO LUMO ENERGIES (EV) =         -8.886 -0.099
          NO. OF FILLED LEVELS    =         14
          MOLECULAR WEIGHT        =         68.1182

          MOLECULAR DIMENSIONS (Angstroms)

            Atom       Atom       Distance
            H     9    H     6     4.86477
            H    11    H     8     4.26942
            H     7    H    10     1.85042


          SCF CALCULATIONS        =         23
 
          WALL-CLOCK TIME         =          0.092 SECONDS
          COMPUTATION TIME        =          0.328 SECONDS




  ATOM    CHEMICAL      BOND LENGTH      BOND ANGLE     TWIST ANGLE 
 NUMBER    SYMBOL       (ANGSTROMS)      (DEGREES)       (DEGREES) 
   (I)                     NA:I           NB:NA:I       NC:NB:NA:I       NA    NB    NC 
     1       C          0.00000000       0.0000000       0.0000000        0     0     0
     2       H          1.45597045  *    0.0000000       0.0000000        1     0     0
     3       C          1.45597045     127.4554955  *    0.0000000        2     1     0
     4       C          1.40502746  *  101.1280831  *   55.9895592  *     3     2     1
     5       H          1.08563671  *   87.4865942  *   64.2076807  *     1     2     3
     6       H          1.08162798  *  112.1357353  *  175.9273566  *     1     2     3
     7       H          2.15436727  *  119.9278618  *  -76.1064558  *     1     2     3
     8       H          2.14467828  *  148.6577377  *  -35.2092744  *     4     3     2
     9       H          1.09297416  *  118.6639152  *  139.6801241  *     4     3     2
    10       H          1.08521797  *   87.5881552  *  -64.6589937  *     3     2     1
    11       H          1.08188587  *  112.2883327  * -176.3786431  *     3     2     1
    12       C          1.09260776  *   34.7933458  *   48.1746363  *     7     1     2
    13       C          1.08722378  *   34.4831039  *    8.8224908  *     8     4     3

                             CARTESIAN COORDINATES

   1    C        0.000000000     0.000000000     0.000000000
   2    H        1.455970453     0.000000000     0.000000000
   3    C        2.341411617     1.155787138     0.000000000
   4    C        1.894191962     1.840003612     1.142779312
   5    H        0.047608578     0.471917402    -0.976542095
   6    H       -0.407559656    -0.999375287    -0.071156512
   7    H       -1.074833731     0.448323528     1.812467053
   8    H        0.265929000     2.406147532     2.418665553
   9    H        2.634634941     2.304017123     1.799306663
  10    H        1.945250166     1.401754462    -0.979925620
  11    H        3.384024988     0.873942364    -0.063229159
  12    C       -0.266856215     0.762409428     1.147400064
  13    C        0.573893018     1.786040980     1.580404505


           Empirical Formula: C5 H8  =    13 atoms



      MOLECULAR POINT GROUP   :   Cs  


                  EIGENVALUES  
 -29.56564 -25.47933 -24.18011 -20.15639 -18.30232 -16.99118 -14.56704 -14.30521
 -14.22345 -13.09225 -12.51509 -12.27626  -9.65476  -8.88564  -0.09872   1.28457
   4.37593   4.87082   4.89455   5.32330   5.56984   5.85439   5.94890   6.22477
   6.29358   6.33980   6.74207   6.75485


              NET ATOMIC CHARGES AND DIPOLE CONTRIBUTIONS

  ATOM NO.   TYPE          CHARGE      No. of ELECS.   s-Pop       p-Pop       
    1          C          -0.483618        4.4836     1.08217     3.40145
    2          H           0.270833        0.7292     0.72917
    3          C          -0.486781        4.4868     1.08211     3.40467
    4          C          -0.035029        4.0350     1.09098     2.94405
    5          H           0.163723        0.8363     0.83628
    6          H           0.146421        0.8536     0.85358
    7          H           0.138901        0.8611     0.86110
    8          H           0.151724        0.8483     0.84828
    9          H           0.138822        0.8612     0.86118
   10          H           0.163443        0.8366     0.83656
   11          H           0.146364        0.8536     0.85364
   12          C          -0.035608        4.0356     1.09088     2.94473
   13          C          -0.279195        4.2792     1.07502     3.20418
 DIPOLE           X         Y         Z       TOTAL
 POINT-CHG.     0.267    -0.565     0.032     0.626
 HYBRID        -0.037     0.082    -0.133     0.161
 SUM            0.230    -0.483    -0.101     0.545


          ATOMIC ORBITAL ELECTRON POPULATIONS

     Atom    s        px        py        pz   
    1  C   1.08217   1.19566   1.12364   1.08216
    2  H   0.72917
    3  C   1.08211   1.15950   1.16241   1.08276
    4  C   1.09098   1.01560   0.93003   0.99841
    5  H   0.83628
    6  H   0.85358
    7  H   0.86110
    8  H   0.84828
    9  H   0.86118
   10  H   0.83656
   11  H   0.85364
   12  C   1.09088   0.98356   0.96137   0.99980
   13  C   1.07502   1.01240   1.08074   1.11104
 *******************************************************************************
 ** Site#: 29054        For non-commercial use only    Version 18.021W 64BITS **
 *******************************************************************************
 ** Cite this program as: MOPAC2016, Version: 18.021W, James J. P. Stewart,   **
 ** Stewart Computational Chemistry, web: HTTP://OpenMOPAC.net. Days left: 364**
 *******************************************************************************
 **                                                                           **
 **                                MOPAC2016                                  **
 **                                                                           **
 *******************************************************************************

                              PM7 CALCULATION RESULTS


 *******************************************************************************
 *  CALCULATION DONE:                                Mon Jan 22 08:44:33 2018  *
 *  OLDGEO     - PREVIOUS GEOMETRY TO BE USED
 *  FORCE      - FORCE CALCULATION SPECIFIED
 *  T=         - A TIME OF 172800.0 SECONDS REQUESTED
 *  DUMP=N     - RESTART FILE WRITTEN EVERY  7200.000 SECONDS
 *  ISOTOPE    - FORCE MATRIX WRITTEN TO DISK (CHAN. 9 )
 *******************************************************************************
oldgeo force isotope
 Transition state for Pentadiene <=> Pentadiene

  ATOM    CHEMICAL      BOND LENGTH      BOND ANGLE     TWIST ANGLE 
 NUMBER    SYMBOL       (ANGSTROMS)      (DEGREES)       (DEGREES) 
   (I)                     NA:I           NB:NA:I       NC:NB:NA:I       NA    NB    NC 
     1       C          0.00000000       0.0000000       0.0000000        0     0     0
     2       H          1.45597045  *    0.0000000       0.0000000        1     0     0
     3       C          1.45597045     127.4554955  *    0.0000000        2     1     0
     4       C          1.40502746  *  101.1280831  *   55.9895592  *     3     2     1
     5       H          1.08563671  *   87.4865942  *   64.2076807  *     1     2     3
     6       H          1.08162798  *  112.1357353  *  175.9273566  *     1     2     3
     7       H          2.15436727  *  119.9278618  *  -76.1064558  *     1     2     3
     8       H          2.14467828  *  148.6577377  *  -35.2092744  *     4     3     2
     9       H          1.09297416  *  118.6639152  *  139.6801241  *     4     3     2
    10       H          1.08521797  *   87.5881552  *  -64.6589937  *     3     2     1
    11       H          1.08188587  *  112.2883327  * -176.3786431  *     3     2     1
    12       C          1.09260776  *   34.7933458  *   48.1746363  *     7     1     2
    13       C          1.08722378  *   34.4831039  *    8.8224908  *     8     4     3
 


          CARTESIAN COORDINATES 

    NO.       ATOM           X           Y           Z

     1         C          0.0000      0.0000      0.0000
     2         H          1.4560      0.0000      0.0000
     3         C          2.3414      1.1558      0.0000
     4         C          1.8942      1.8400      1.1428
     5         H          0.0476      0.4719     -0.9765
     6         H         -0.4076     -0.9994     -0.0712
     7         H         -1.0748      0.4483      1.8125
     8         H          0.2659      2.4061      2.4187
     9         H          2.6346      2.3040      1.7993
    10         H          1.9453      1.4018     -0.9799
    11         H          3.3840      0.8739     -0.0632
    12         C         -0.2669      0.7624      1.1474
    13         C          0.5739      1.7860      1.5804

 General Reference for PM7:
 "Optimization of Parameters for Semiempirical Methods VI: More Modifications to the 
 NDDO Approximations and Re-optimization of Parameters", J. J. P. Stewart, J. Mol. Mod., 1:32, 19 (2013)
 http://www.springerlink.com/openurl.asp?genre=article&id=doi:10.1007/s00894-012-1667-x

           Empirical Formula: C5 H8  =    13 atoms



      MOLECULAR POINT GROUP   :   Cs  


      RHF CALCULATION, NO. OF DOUBLY OCCUPIED LEVELS = 14



          HEAT OF FORMATION =      61.497899 KCALS/MOLE


          CARTESIAN COORDINATE DERIVATIVES

   NUMBER  ATOM         X            Y            Z

     1       C      0.722700     0.075020     0.462824
     2       H     -1.503237    -0.598057    -0.673234
     3       C      0.319731     0.623430     0.353063
     4       C     -0.116422     0.449885     0.152506
     5       H     -0.030107     0.050419    -0.102592
     6       H      0.239760    -0.067976     0.043372
     7       H      0.116529     0.105123    -0.109373
     8       H      0.063509    -0.205697    -0.285870
     9       H      0.117771    -0.025307    -0.065787
    10       H      0.067623    -0.120095    -0.083220
    11       H      0.070107    -0.151149     0.105689
    12       C     -0.147833    -0.178436    -0.058988
    13       C      0.079866     0.042838     0.261606
 


          GRADIENT NORM =   2.26443

          MOLECULAR WEIGHT =   68.12



          ROTATIONAL CONSTANTS IN CM(-1)

          A =    0.27107848   B =    0.17037318   C =    0.10873059



           PRINCIPAL MOMENTS OF INERTIA IN UNITS OF 10**(-40)*GRAM-CM**2

          A =      103.2645   B =      164.3027   C =      257.4508


          ORIENTATION OF MOLECULE IN FORCE CALCULATION

    NO.       ATOM         X         Y         Z

     1          C      -0.9231   -1.0798   -0.7408
     2          H       0.5329   -1.0798   -0.7408
     3          C       1.4183    0.0760   -0.7408
     4          C       0.9711    0.7602    0.4020
     5          H      -0.8755   -0.6079   -1.7173
     6          H      -1.3306   -2.0792   -0.8119
     7          H      -1.9979   -0.6315    1.0717
     8          H      -0.6571    1.3264    1.6779
     9          H       1.7116    1.2242    1.0585
    10          H       1.0222    0.3220   -1.7207
    11          H       2.4610   -0.2058   -0.8040
    12          C      -1.1899   -0.3174    0.4066
    13          C      -0.3492    0.7063    0.8396


    FIRST DERIVATIVES WILL BE USED IN THE CALCULATION OF SECOND DERIVATIVES

    FOR POINT-GROUP Cs   THERE ARE   2 UNIQUE SYMMETRY FUNCTIONS.

 STEP:   1 TIME =     0.00 SECS, INTEGRAL =      0.00 TIME LEFT: 172800.00
 STEP:   2 TIME =     0.00 SECS, INTEGRAL =      0.00 TIME LEFT: 172800.00
 STEP:   3 TIME =     0.02 SECS, INTEGRAL =      0.02 TIME LEFT: 172799.98
 STEP:   4 TIME =     0.00 SECS, INTEGRAL =      0.02 TIME LEFT: 172799.98
 STEP:   5 TIME =     0.02 SECS, INTEGRAL =      0.03 TIME LEFT: 172799.97
 STEP:   6 TIME =     0.00 SECS, INTEGRAL =      0.03 TIME LEFT: 172799.97
 STEP:   7                       INTEGRAL =      0.03 TIME LEFT: 172799.97
 STEP:   8                       INTEGRAL =      0.03 TIME LEFT: 172799.97
 STEP:   9                       INTEGRAL =      0.03 TIME LEFT: 172799.97
 STEP:  10 TIME =     0.01 SECS, INTEGRAL =      0.05 TIME LEFT: 172799.95
 STEP:  11 TIME =     0.00 SECS, INTEGRAL =      0.05 TIME LEFT: 172799.95
 STEP:  12 TIME =     0.02 SECS, INTEGRAL =      0.06 TIME LEFT: 172799.94
 STEP:  13 TIME =     0.00 SECS, INTEGRAL =      0.06 TIME LEFT: 172799.94
 STEP:  14 TIME =     0.02 SECS, INTEGRAL =      0.08 TIME LEFT: 172799.92
 STEP:  15 TIME =     0.00 SECS, INTEGRAL =      0.08 TIME LEFT: 172799.92
 STEP:  16 TIME =     0.00 SECS, INTEGRAL =      0.08 TIME LEFT: 172799.92
 STEP:  17 TIME =     0.01 SECS, INTEGRAL =      0.09 TIME LEFT: 172799.91
 STEP:  18 TIME =     0.00 SECS, INTEGRAL =      0.09 TIME LEFT: 172799.91
 STEP:  19 TIME =     0.02 SECS, INTEGRAL =      0.11 TIME LEFT: 172799.89
 STEP:  20 TIME =     0.00 SECS, INTEGRAL =      0.11 TIME LEFT: 172799.89
 STEP:  21 TIME =     0.00 SECS, INTEGRAL =      0.11 TIME LEFT: 172799.89
 STEP:  22 TIME =     0.01 SECS, INTEGRAL =      0.12 TIME LEFT: 172799.88
 STEP:  23 TIME =     0.00 SECS, INTEGRAL =      0.12 TIME LEFT: 172799.88
 STEP:  24 TIME =     0.00 SECS, INTEGRAL =      0.12 TIME LEFT: 172799.88
 STEP:  25                       INTEGRAL =      0.12 TIME LEFT: 172799.88
 STEP:  26                       INTEGRAL =      0.12 TIME LEFT: 172799.88
 STEP:  27                       INTEGRAL =      0.12 TIME LEFT: 172799.88
 STEP:  28                       INTEGRAL =      0.12 TIME LEFT: 172799.88
 STEP:  29                       INTEGRAL =      0.12 TIME LEFT: 172799.88
 STEP:  30                       INTEGRAL =      0.12 TIME LEFT: 172799.88
 STEP:  31                       INTEGRAL =      0.12 TIME LEFT: 172799.88
 STEP:  32                       INTEGRAL =      0.12 TIME LEFT: 172799.88
 STEP:  33                       INTEGRAL =      0.12 TIME LEFT: 172799.88
 STEP:  34                       INTEGRAL =      0.12 TIME LEFT: 172799.88
 STEP:  35                       INTEGRAL =      0.12 TIME LEFT: 172799.88
 STEP:  36                       INTEGRAL =      0.12 TIME LEFT: 172799.88
 STEP:  37 TIME =     0.02 SECS, INTEGRAL =      0.14 TIME LEFT: 172799.86
 STEP:  38 TIME =     0.00 SECS, INTEGRAL =      0.14 TIME LEFT: 172799.86
 STEP:  39 TIME =     0.00 SECS, INTEGRAL =      0.14 TIME LEFT: 172799.86

(To convert to Hartree/Bohr^2, multiply by (10^(-21) x N x a0^2)/(4.184 x 627.51) =  0.0642)


           FORCE MATRIX IN MILLIDYNES/ANGSTROM


                  C  1       H  2       C  3       C  4       H  5       H  6
 ------------------------------------------------------------------------------
     C    1  12.175417
     H    2   2.431843   2.157774
     C    3   2.715246   2.434422  12.175417
     C    4   1.675858   2.016183   6.073770  15.053579
     H    5   3.454471   0.572624   0.308984   0.265132   4.186629
     H    6   3.535396   0.178741   0.029337   0.033203   0.455437   4.300175
     H    7   0.817536   0.210012   0.186333   0.188614   0.037079   0.038744
     H    8   0.081190   0.007621   0.083159   0.782072   0.009937   0.007888
     H    9   0.194824   0.218793   0.820319   3.431696   0.035578   0.009221
     H   10   0.319052   0.582279   3.454484   0.873909   0.088051   0.013595
     H   11   0.030836   0.173069   3.535289   0.781210   0.013418   0.004830
     C   12   6.115120   2.028316   1.679679   2.254141   0.866015   0.778645
     C   13   2.119675   1.563963   2.118918   6.145563   0.296836   0.095217


                  H  7       H  8       H  9       H 10       H 11       C 12
 ------------------------------------------------------------------------------
     H    7   4.335390
     H    8   0.035835   4.411714
     H    9   0.020918   0.036690   4.335390
     H   10   0.035234   0.010549   0.037079   4.186629
     H   11   0.010213   0.008060   0.038744   0.455437   4.300175
     C   12   3.433681   0.778917   0.188614   0.265132   0.033203  15.053579
     C   13   0.808456   3.468510   0.808966   0.297864   0.095184   6.115697


                  C 13
 ------------------
     C   13  15.084103


          HEAT OF FORMATION =      61.497899 KCALS/MOLE

          ZERO POINT ENERGY      65.030 KCAL/MOL

         NOTE: SYSTEM IS NOT A GROUND STATE, THEREFORE ZERO POINT
         ENERGY IS NOT MEANINGFULL. ZERO POINT ENERGY PRINTED
         DOES NOT INCLUDE THE  1 IMAGINARY FREQUENCIES


           NORMAL COORDINATE ANALYSIS (Total motion = 1 Angstrom)


   Root No.       1         2         3         4         5         6         7         8

                 1 A"      2 A"      1 A'      2 A'      3 A"      3 A'      4 A'      4 A"  

               -2032.4     272.5     422.0     447.5     495.6     606.2     726.3     756.8
  
           1   -0.0403   -0.0118    0.0393    0.0632   -0.0385   -0.0116   -0.0135   -0.0035
           2    0.0122    0.0395    0.0089    0.0291   -0.0309    0.0015   -0.0098    0.0212
           3    0.0115   -0.0205   -0.0014   -0.0078   -0.0417    0.0062   -0.0087   -0.0119
           4    0.4417   -0.0314    0.0322    0.0227   -0.0568    0.0246    0.0190    0.0362
           5    0.2192   -0.0156   -0.0646   -0.0457   -0.0282   -0.0494   -0.0384    0.0180
           6   -0.0002   -0.0000    0.0941    0.0072    0.0000    0.0902    0.0119   -0.0001
           7   -0.0146    0.0244   -0.0308   -0.0614   -0.0478    0.0058    0.0160    0.0148
           8   -0.0395   -0.0333   -0.0258   -0.0327   -0.0120    0.0102    0.0048   -0.0155
           9   -0.0114    0.0205   -0.0014   -0.0078    0.0417    0.0062   -0.0086    0.0119
          10   -0.0161   -0.0214   -0.0121   -0.0120    0.0289    0.0189   -0.0362    0.0018
          11    0.0107    0.0324    0.0230   -0.0301    0.0506   -0.0074   -0.0282   -0.0171
          12    0.0184   -0.0359   -0.0195    0.0144    0.0315    0.0136   -0.0129    0.0070
          13    0.1031   -0.0315    0.1157    0.0120   -0.0821    0.1259    0.0668   -0.1615
          14   -0.0242    0.1262   -0.0065    0.0841   -0.0757    0.0572   -0.0761   -0.0106
          15    0.0133    0.0180   -0.0055    0.0127   -0.0636    0.0368   -0.0324   -0.0276
          16    0.0098   -0.0214   -0.0094    0.0995   -0.0839   -0.1168   -0.1319    0.1689
          17   -0.0012    0.0495    0.0294    0.0174   -0.0196    0.0566    0.0339   -0.0581
          18   -0.0022   -0.0972   -0.0237   -0.0472    0.0138   -0.1073    0.0191    0.0895
          19    0.0352    0.0656   -0.0743    0.0606    0.0907   -0.0211    0.0882    0.0400
          20   -0.0281   -0.0953    0.0519   -0.0611   -0.0290    0.0167   -0.0493   -0.0463
          21    0.0278    0.0688   -0.0844    0.0207    0.0078    0.0082    0.0233    0.0310
          22   -0.0047   -0.0035    0.0377   -0.0453   -0.0219   -0.0295    0.0039    0.0047
          23   -0.0022   -0.0018   -0.0758    0.0911   -0.0109    0.0592   -0.0078    0.0023
          24   -0.0001    0.0000    0.0912   -0.0546    0.0000   -0.0874    0.0715    0.0000
          25   -0.0012   -0.0363    0.0035    0.0120    0.0317   -0.0005   -0.0140   -0.0128
          26    0.0451    0.1098    0.0907   -0.0851    0.0898    0.0270   -0.1002    0.0598
          27   -0.0279   -0.0688   -0.0845    0.0206   -0.0079    0.0082    0.0235   -0.0310
          28    0.0431    0.0814   -0.0649   -0.0743   -0.1099   -0.1217    0.0203   -0.1060
          29    0.0965   -0.1014   -0.0960    0.0413   -0.0196   -0.0657   -0.0992   -0.1222
          30   -0.0134   -0.0180   -0.0055    0.0127    0.0637    0.0370   -0.0323    0.0278
          31    0.0050    0.0266   -0.0178   -0.0741   -0.0664    0.0254    0.0528    0.0557
          32    0.0085   -0.0469    0.0254   -0.0686   -0.0550    0.1272    0.1254    0.1697
          33    0.0023    0.0972   -0.0238   -0.0471   -0.0137   -0.1074    0.0191   -0.0897
          34   -0.0013    0.0129   -0.0110    0.0313    0.0577   -0.0055    0.0443   -0.0126
          35   -0.0193   -0.0366    0.0234   -0.0087   -0.0076   -0.0195    0.0118    0.0118
          36   -0.0184    0.0359   -0.0195    0.0144   -0.0316    0.0136   -0.0130   -0.0069
          37    0.0193   -0.0083    0.0127   -0.0221    0.0248    0.0020   -0.0194   -0.0027
          38    0.0096   -0.0041   -0.0256    0.0446    0.0123   -0.0040    0.0392   -0.0014
          39   -0.0001    0.0000    0.0454   -0.0069   -0.0000   -0.0295    0.0345    0.0000


   Root No.       9        10        11        12        13        14        15        16

                 5 A'      5 A"      6 A'      6 A"      7 A'      8 A'      7 A"      9 A'  

                 841.6     945.3     974.8    1032.1    1051.1    1088.3    1155.7    1182.2
  
           1   -0.0000    0.0132   -0.0051    0.0007   -0.0187    0.0272   -0.0220   -0.0012
           2   -0.0073    0.0146    0.0200    0.0318   -0.0353   -0.0088   -0.0022    0.0010
           3   -0.0068    0.0020   -0.0102   -0.0116   -0.0032    0.0153   -0.0195   -0.0130
           4   -0.0075   -0.0420   -0.0012    0.0204   -0.0016    0.0095   -0.0861    0.0414
           5    0.0148   -0.0209    0.0025    0.0101    0.0033   -0.0193   -0.0427   -0.0829
           6   -0.1140    0.0001    0.0875   -0.0000    0.0666   -0.0875   -0.0000    0.3736
           7    0.0059    0.0196   -0.0129    0.0258    0.0394   -0.0094   -0.0151   -0.0000
           8   -0.0045    0.0016    0.0163   -0.0187   -0.0066   -0.0270   -0.0161    0.0015
           9   -0.0068   -0.0020   -0.0102    0.0116   -0.0032    0.0153    0.0195   -0.0130
          10   -0.0111   -0.0021    0.0079   -0.0088   -0.0047   -0.0056   -0.0035   -0.0058
          11   -0.0233   -0.0233    0.0125    0.0274    0.0175    0.0239   -0.0010   -0.0129
          12    0.0060    0.0060   -0.0028   -0.0257   -0.0180   -0.0165   -0.0156   -0.0004
          13   -0.0559    0.0749    0.0569    0.0011    0.0007   -0.0959    0.1494   -0.1844
          14    0.0058   -0.1020   -0.0915   -0.1114    0.0912    0.0449   -0.0501    0.0227
          15   -0.0039   -0.0470   -0.0510   -0.0645    0.0487    0.0270   -0.0325   -0.0052
          16   -0.0427   -0.0806    0.0337   -0.0349    0.0910   -0.1278    0.1279   -0.0414
          17    0.0083    0.0383   -0.0075    0.0250   -0.0568    0.0529   -0.0589    0.0086
          18    0.0058    0.0662    0.0668    0.1218   -0.1328   -0.0035   -0.0261    0.0284
          19   -0.1032    0.1010    0.0453   -0.1027    0.0372    0.0649    0.0040   -0.0122
          20    0.0925   -0.1258   -0.0727    0.0384   -0.0380   -0.0493    0.0267    0.0299
          21   -0.1047    0.0794    0.0365   -0.0938    0.0210    0.0525    0.0326   -0.0185
          22   -0.0831    0.0039   -0.0735   -0.0118   -0.0383   -0.0181    0.0973    0.0029
          23    0.1674    0.0019    0.1479   -0.0058    0.0773    0.0364    0.0482   -0.0058
          24   -0.1253   -0.0000   -0.1472   -0.0000   -0.0187   -0.0544    0.0000   -0.0017
          25   -0.0113   -0.0392    0.0305   -0.0314    0.0079    0.0001    0.0237   -0.0164
          26    0.1380    0.1566   -0.0799   -0.1050   -0.0527   -0.0815   -0.0131    0.0276
          27   -0.1047   -0.0795    0.0364    0.0939    0.0210    0.0526   -0.0325   -0.0184
          28    0.0292   -0.0359    0.0383   -0.0880   -0.0730    0.0222    0.0504    0.0935
          29    0.0480    0.1213   -0.1006    0.0682    0.0546    0.1035    0.1496    0.1605
          30   -0.0039    0.0470   -0.0510    0.0645    0.0488    0.0270    0.0323   -0.0054
          31    0.0192   -0.0183   -0.0143   -0.0013   -0.0099    0.0351    0.0304    0.0183
          32    0.0389   -0.0874   -0.0312   -0.0429   -0.1070    0.1338    0.1376    0.0380
          33    0.0058   -0.0661    0.0668   -0.1218   -0.1327   -0.0036    0.0258    0.0284
          34    0.0253   -0.0198   -0.0147    0.0166   -0.0112   -0.0157   -0.0029    0.0138
          35   -0.0052    0.0124    0.0012   -0.0235    0.0144    0.0189   -0.0022   -0.0031
          36    0.0060   -0.0060   -0.0028    0.0257   -0.0180   -0.0165    0.0156   -0.0004
          37    0.0014   -0.0079    0.0151   -0.0134   -0.0061    0.0127    0.0101    0.0015
          38   -0.0028   -0.0039   -0.0304   -0.0066    0.0124   -0.0256    0.0049   -0.0031
          39    0.0390   -0.0000    0.0221   -0.0000    0.0490    0.0017    0.0000   -0.0051


   Root No.      17        18        19        20        21        22        23        24

                10 A'      8 A"      9 A"     11 A'     10 A"     12 A'     11 A"     13 A'  

                1209.1    1245.9    1299.0    1307.0    1362.7    1400.3    1535.7    1620.6
  
           1    0.0113    0.0139    0.0155    0.0150    0.0055    0.0069    0.0140    0.0207
           2   -0.0106   -0.0131    0.0035   -0.0043   -0.0079   -0.0169   -0.0329   -0.0058
           3   -0.0124   -0.0121   -0.0086   -0.0129   -0.0203   -0.0391   -0.0515    0.0044
           4   -0.0119    0.0717    0.0350   -0.0143    0.0106    0.0282    0.0736   -0.2408
           5    0.0240    0.0356    0.0175    0.0288    0.0052   -0.0569    0.0366    0.4853
           6    0.0019   -0.0001   -0.0001   -0.0044   -0.0000   -0.0201   -0.0002    0.1468
           7    0.0015   -0.0020    0.0121   -0.0057   -0.0029    0.0092   -0.0177   -0.0079
           8   -0.0153    0.0190    0.0103   -0.0146    0.0092   -0.0158    0.0312   -0.0199
           9   -0.0125    0.0121    0.0085   -0.0129    0.0203   -0.0391    0.0513    0.0044
          10    0.0385   -0.0111   -0.0168    0.0106   -0.0112    0.0261   -0.0161    0.0106
          11    0.0204   -0.0091   -0.0027    0.0077    0.0041    0.0122   -0.0386   -0.0155
          12    0.0189   -0.0077   -0.0038    0.0129    0.0081    0.0092   -0.0474   -0.0194
          13   -0.0464   -0.0821   -0.0531   -0.0368    0.0355    0.0456   -0.0018    0.0420
          14   -0.0689   -0.0431   -0.0828   -0.1130    0.1157    0.1013    0.0367    0.0520
          15   -0.0400   -0.0283   -0.0524   -0.0684    0.0431    0.0251   -0.0074    0.0153
          16   -0.0601   -0.0503   -0.0183   -0.0070   -0.0405   -0.0362   -0.0424   -0.0529
          17    0.0144    0.0164    0.0180    0.0097   -0.0033   -0.0147   -0.0138    0.0210
          18   -0.0403   -0.0679   -0.0726   -0.1166    0.1598    0.1501    0.0483    0.0433
          19   -0.0735   -0.0267    0.0329    0.0239    0.0239    0.0051   -0.0444    0.0127
          20   -0.1657   -0.0418    0.1716    0.1303    0.0760    0.0621   -0.0647    0.0207
          21   -0.1016   -0.0333    0.1430    0.1172    0.0657    0.0750   -0.0235    0.0050
          22   -0.0004    0.3123   -0.0539   -0.0025    0.0965   -0.0053   -0.1813   -0.0006
          23    0.0008    0.1550   -0.0269    0.0052    0.0479    0.0107   -0.0902    0.0011
          24    0.0445   -0.0002    0.0001    0.0136   -0.0000    0.0236    0.0003    0.0007
          25    0.1763   -0.0494    0.1565   -0.1181    0.0749   -0.0525   -0.0782   -0.0242
          26   -0.0415    0.0039   -0.0777    0.0598   -0.0270    0.0336    0.0035    0.0025
          27   -0.1019    0.0334   -0.1430    0.1173   -0.0658    0.0750    0.0237    0.0050
          28    0.0828   -0.0840   -0.0981    0.1122    0.1135   -0.1082    0.0280   -0.0668
          29   -0.0047   -0.0393    0.0080   -0.0390   -0.0417    0.0249   -0.0233   -0.0020
          30   -0.0402    0.0284    0.0524   -0.0685   -0.0432    0.0252    0.0073    0.0154
          31    0.0248   -0.0174    0.0033   -0.0037   -0.0273    0.0338   -0.0368    0.0153
          32    0.0567   -0.0499   -0.0253    0.0114   -0.0304    0.0201   -0.0253    0.0549
          33   -0.0405    0.0679    0.0724   -0.1166   -0.1598    0.1500   -0.0485    0.0433
          34   -0.0395   -0.0140   -0.0123   -0.0125   -0.0035   -0.0255   -0.0404    0.0059
          35   -0.0184   -0.0034   -0.0118   -0.0037   -0.0114   -0.0134    0.0105   -0.0179
          36    0.0190    0.0078    0.0038    0.0129   -0.0081    0.0093    0.0474   -0.0194
          37   -0.0196    0.0070    0.0011   -0.0034   -0.0120   -0.0093    0.0840   -0.0029
          38    0.0395    0.0034    0.0005    0.0070   -0.0060    0.0187    0.0416    0.0059
          39    0.0137    0.0000    0.0001    0.0106    0.0000    0.0175    0.0000    0.0068


   Root No.      25        26        27        28        29        30        31        32

                14 A'     12 A"     13 A"     15 A'     16 A'     14 A"     17 A'     15 A"  

                1663.1    1672.0    2688.6    2694.1    2744.1    2745.0    2765.9    2766.9
  
           1    0.0099    0.0033    0.0052    0.0060   -0.0024   -0.0037    0.0046   -0.0058
           2   -0.0452    0.0330    0.0189    0.0186   -0.0031   -0.0067    0.0101   -0.0119
           3   -0.0563    0.0413   -0.0158   -0.0152    0.0062    0.0032    0.0110   -0.0123
           4   -0.0617   -0.2150   -0.0081   -0.0058    0.0023    0.0019    0.0027   -0.0161
           5    0.1243   -0.1069   -0.0040    0.0117   -0.0047    0.0009   -0.0055   -0.0080
           6    0.0321    0.0003    0.0000   -0.0044   -0.0007    0.0000    0.0006    0.0001
           7    0.0300    0.0283    0.0183   -0.0185    0.0040   -0.0075   -0.0109   -0.0129
           8   -0.0353   -0.0176   -0.0073    0.0065   -0.0000    0.0011    0.0024    0.0025
           9   -0.0563   -0.0412    0.0158   -0.0152    0.0063   -0.0031    0.0111    0.0124
          10   -0.0907   -0.0985   -0.0024    0.0021    0.0168   -0.0173   -0.0011   -0.0002
          11    0.0369    0.0246   -0.0021    0.0024    0.0092   -0.0106    0.0016    0.0025
          12    0.0883    0.0661   -0.0013    0.0018    0.0129   -0.0153    0.0033    0.0046
          13    0.0506   -0.0206   -0.0094   -0.0085    0.0030    0.0003    0.0107   -0.0099
          14    0.0192    0.0017   -0.0978   -0.0914    0.0256    0.0078    0.0655   -0.0748
          15   -0.0198   -0.0003    0.2320    0.2198   -0.0626   -0.0279   -0.1322    0.1492
          16   -0.0090    0.0119   -0.0541   -0.0570    0.0059    0.0301   -0.0766    0.0898
          17   -0.0204   -0.0005   -0.1407   -0.1456    0.0169    0.0796   -0.2019    0.2349
          18   -0.0194    0.0395   -0.0228   -0.0226    0.0039    0.0093   -0.0158    0.0180
          19   -0.0006   -0.0306    0.0474    0.0481    0.2282    0.2610    0.0145   -0.0343
          20   -0.0724   -0.0005    0.0185    0.0191    0.0860    0.0985    0.0053   -0.0135
          21   -0.0389   -0.0367   -0.0356   -0.0368   -0.1834   -0.2083   -0.0124    0.0291
          22    0.0091    0.0460   -0.0001   -0.0026   -0.0406   -0.0009    0.0496    0.0007
          23   -0.0183    0.0231   -0.0000    0.0053    0.0818   -0.0003   -0.1001    0.0007
          24   -0.0298   -0.0003   -0.0000    0.0073    0.1079    0.0000   -0.1317    0.0002
          25    0.0581   -0.0190    0.0435   -0.0443   -0.2070    0.2361   -0.0131   -0.0315
          26   -0.0435   -0.0237    0.0267   -0.0268   -0.1302    0.1483   -0.0085   -0.0191
          27   -0.0389    0.0367    0.0355   -0.0367   -0.1834    0.2076   -0.0124   -0.0290
          28   -0.0458   -0.0108   -0.0838    0.0782   -0.0222    0.0064   -0.0589   -0.0655
          29   -0.0288   -0.0179    0.0514   -0.0484    0.0131   -0.0046    0.0312    0.0371
          30   -0.0197    0.0004   -0.2319    0.2197   -0.0626    0.0278   -0.1326   -0.1487
          31    0.0217    0.0069   -0.1448    0.1504   -0.0171    0.0816    0.2079    0.2407
          32   -0.0053    0.0096    0.0420   -0.0427    0.0055   -0.0242   -0.0613   -0.0704
          33   -0.0193   -0.0391    0.0230   -0.0227    0.0041   -0.0092   -0.0160   -0.0181
          34    0.0255   -0.0401   -0.0031   -0.0031   -0.0175   -0.0190   -0.0006    0.0018
          35    0.0946   -0.0933   -0.0006   -0.0002   -0.0078   -0.0074    0.0019   -0.0017
          36    0.0881   -0.0661    0.0013    0.0019    0.0128    0.0154    0.0032   -0.0047
          37    0.0234    0.1263   -0.0005    0.0003    0.0030   -0.0042   -0.0035    0.0026
          38   -0.0472    0.0629   -0.0002   -0.0005   -0.0061   -0.0021    0.0070    0.0013
          39   -0.0508   -0.0002   -0.0000   -0.0005   -0.0065   -0.0000    0.0094   -0.0001


   Root No.      33

                18 A'  

                2771.1
  
           1    0.0031
           2    0.0068
           3    0.0053
           4    0.0001
           5   -0.0002
           6    0.0015
           7   -0.0073
           8    0.0017
           9    0.0054
          10   -0.0039
          11   -0.0039
          12   -0.0056
          13    0.0052
          14    0.0296
          15   -0.0567
          16   -0.0423
          17   -0.1113
          18   -0.0091
          19   -0.0704
          20   -0.0272
          21    0.0557
          22   -0.1096
          23    0.2211
          24    0.2900
          25    0.0643
          26    0.0397
          27    0.0556
          28   -0.0267
          29    0.0137
          30   -0.0566
          31    0.1142
          32   -0.0335
          33   -0.0091
          34    0.0055
          35    0.0007
          36   -0.0056
          37    0.0081
          38   -0.0164
          39   -0.0223


           MASS-WEIGHTED COORDINATE ANALYSIS (NORMAL COORDINATES)


   Root No.       1         2         3         4         5         6         7         8

                 1 A"      2 A"      1 A'      2 A'      3 A"      3 A'      4 A'      4 A"  

               -2032.4     272.5     422.0     447.5     495.6     606.2     726.3     756.8
  
           1   -0.2387   -0.0880    0.3124    0.4381   -0.2492   -0.1028   -0.1075   -0.0291
           2    0.0722    0.2944    0.0705    0.2016   -0.2000    0.0136   -0.0777    0.1788
           3    0.0683   -0.1526   -0.0114   -0.0543   -0.2699    0.0553   -0.0688   -0.1006
           4    0.7579   -0.0677    0.0741    0.0456   -0.1065    0.0631    0.0438    0.0883
           5    0.3761   -0.0336   -0.1489   -0.0917   -0.0529   -0.1268   -0.0884    0.0439
           6   -0.0004   -0.0000    0.2168    0.0144    0.0001    0.2319    0.0275   -0.0001
           7   -0.0867    0.1814   -0.2452   -0.4257   -0.3097    0.0513    0.1272    0.1248
           8   -0.2342   -0.2478   -0.2054   -0.2264   -0.0775    0.0904    0.0379   -0.1310
           9   -0.0677    0.1524   -0.0113   -0.0541    0.2703    0.0553   -0.0683    0.1003
          10   -0.0956   -0.1591   -0.0963   -0.0833    0.1868    0.1674   -0.2877    0.0153
          11    0.0635    0.2412    0.1828   -0.2084    0.3275   -0.0656   -0.2245   -0.1446
          12    0.1087   -0.2673   -0.1555    0.0998    0.2040    0.1207   -0.1024    0.0588
          13    0.1768   -0.0680    0.2666    0.0241   -0.1540    0.3236    0.1538   -0.3946
          14   -0.0414    0.2723   -0.0149    0.1688   -0.1420    0.1470   -0.1751   -0.0258
          15    0.0228    0.0389   -0.0128    0.0255   -0.1193    0.0947   -0.0746   -0.0674
          16    0.0168   -0.0461   -0.0216    0.1997   -0.1574   -0.3000   -0.3037    0.4127
          17   -0.0021    0.1069    0.0677    0.0350   -0.0368    0.1454    0.0780   -0.1421
          18   -0.0037   -0.2098   -0.0547   -0.0946    0.0260   -0.2756    0.0439    0.2187
          19    0.0603    0.1415   -0.1713    0.1217    0.1702   -0.0543    0.2030    0.0976
          20   -0.0483   -0.2056    0.1195   -0.1226   -0.0545    0.0429   -0.1135   -0.1132
          21    0.0478    0.1485   -0.1945    0.0415    0.0147    0.0212    0.0537    0.0757
          22   -0.0080   -0.0076    0.0868   -0.0909   -0.0411   -0.0758    0.0090    0.0115
          23   -0.0038   -0.0038   -0.1748    0.1829   -0.0204    0.1522   -0.0180    0.0056
          24   -0.0001    0.0001    0.2102   -0.1095    0.0000   -0.2245    0.1646    0.0001
          25   -0.0021   -0.0784    0.0080    0.0240    0.0595   -0.0014   -0.0322   -0.0312
          26    0.0774    0.2369    0.2089   -0.1708    0.1685    0.0693   -0.2306    0.1461
          27   -0.0479   -0.1485   -0.1947    0.0414   -0.0149    0.0212    0.0541   -0.0757
          28    0.0740    0.1756   -0.1494   -0.1492   -0.2061   -0.3126    0.0467   -0.2591
          29    0.1656   -0.2187   -0.2213    0.0829   -0.0367   -0.1687   -0.2285   -0.2985
          30   -0.0229   -0.0389   -0.0126    0.0255    0.1195    0.0951   -0.0743    0.0678
          31    0.0085    0.0575   -0.0409   -0.1487   -0.1245    0.0653    0.1216    0.1361
          32    0.0145   -0.1012    0.0585   -0.1376   -0.1031    0.3269    0.2887    0.4146
          33    0.0039    0.2097   -0.0548   -0.0945   -0.0258   -0.2758    0.0439   -0.2192
          34   -0.0075    0.0963   -0.0873    0.2167    0.3736   -0.0487    0.3522   -0.1059
          35   -0.1143   -0.2725    0.1864   -0.0602   -0.0493   -0.1732    0.0940    0.0994
          36   -0.1088    0.2674   -0.1552    0.1000   -0.2044    0.1208   -0.1035   -0.0586
          37    0.1143   -0.0617    0.1012   -0.1534    0.1607    0.0174   -0.1544   -0.0228
          38    0.0570   -0.0307   -0.2038    0.3088    0.0798   -0.0356    0.3115   -0.0115
          39   -0.0003    0.0001    0.3614   -0.0478   -0.0001   -0.2617    0.2739    0.0002


   Root No.       9        10        11        12        13        14        15        16

                 5 A'      5 A"      6 A'      6 A"      7 A'      8 A'      7 A"      9 A'  

                 841.6     945.3     974.8    1032.1    1051.1    1088.3    1155.7    1182.2
  
           1   -0.0001    0.1167   -0.0456    0.0054   -0.1504    0.2431   -0.1987   -0.0089
           2   -0.0611    0.1294    0.1777    0.2631   -0.2850   -0.0790   -0.0199    0.0069
           3   -0.0568    0.0178   -0.0902   -0.0961   -0.0254    0.1363   -0.1767   -0.0928
           4   -0.0180   -0.1077   -0.0030    0.0489   -0.0037    0.0246   -0.2255    0.0855
           5    0.0358   -0.0535    0.0064    0.0242    0.0076   -0.0499   -0.1118   -0.1712
           6   -0.2751    0.0001    0.2250   -0.0000    0.1557   -0.2263   -0.0000    0.7714
           7    0.0488    0.1738   -0.1142    0.2130    0.3179   -0.0839   -0.1362   -0.0000
           8   -0.0373    0.0144    0.1443   -0.1548   -0.0530   -0.2414   -0.1453    0.0106
           9   -0.0567   -0.0177   -0.0904    0.0961   -0.0258    0.1366    0.1762   -0.0925
          10   -0.0928   -0.0185    0.0698   -0.0724   -0.0376   -0.0501   -0.0315   -0.0414
          11   -0.1944   -0.2061    0.1106    0.2266    0.1415    0.2137   -0.0091   -0.0921
          12    0.0502    0.0533   -0.0248   -0.2123   -0.1455   -0.1477   -0.1406   -0.0028
          13   -0.1349    0.1920    0.1465    0.0026    0.0016   -0.2479    0.3914   -0.3808
          14    0.0139   -0.2614   -0.2353   -0.2668    0.2130    0.1162   -0.1312    0.0469
          15   -0.0093   -0.1205   -0.1311   -0.1544    0.1138    0.0699   -0.0850   -0.0108
          16   -0.1030   -0.2067    0.0867   -0.0835    0.2126   -0.3305    0.3350   -0.0856
          17    0.0199    0.0980   -0.0193    0.0598   -0.1327    0.1368   -0.1542    0.0177
          18    0.0139    0.1698    0.1717    0.2919   -0.3101   -0.0089   -0.0683    0.0586
          19   -0.2490    0.2589    0.1165   -0.2460    0.0869    0.1679    0.0104   -0.0252
          20    0.2231   -0.3224   -0.1871    0.0920   -0.0889   -0.1276    0.0700    0.0617
          21   -0.2526    0.2035    0.0939   -0.2248    0.0490    0.1358    0.0853   -0.0381
          22   -0.2006    0.0099   -0.1892   -0.0283   -0.0896   -0.0468    0.2549    0.0060
          23    0.4038    0.0050    0.3804   -0.0140    0.1805    0.0941    0.1262   -0.0119
          24   -0.3023   -0.0001   -0.3785   -0.0000   -0.0436   -0.1408    0.0001   -0.0035
          25   -0.0274   -0.1006    0.0785   -0.0752    0.0184    0.0003    0.0621   -0.0338
          26    0.3329    0.4012   -0.2055   -0.2514   -0.1231   -0.2108   -0.0344    0.0571
          27   -0.2527   -0.2037    0.0937    0.2250    0.0491    0.1360   -0.0852   -0.0380
          28    0.0705   -0.0920    0.0986   -0.2107   -0.1705    0.0575    0.1320    0.1930
          29    0.1158    0.3109   -0.2588    0.1634    0.1275    0.2677    0.3918    0.3315
          30   -0.0094    0.1205   -0.1311    0.1545    0.1139    0.0697    0.0846   -0.0111
          31    0.0464   -0.0470   -0.0369   -0.0031   -0.0232    0.0909    0.0796    0.0377
          32    0.0938   -0.2241   -0.0803   -0.1028   -0.2500    0.3460    0.3604    0.0785
          33    0.0139   -0.1695    0.1717   -0.2918   -0.3100   -0.0092    0.0676    0.0587
          34    0.2108   -0.1755   -0.1301    0.1369   -0.0902   -0.1401   -0.0260    0.0981
          35   -0.0431    0.1100    0.0108   -0.1945    0.1158    0.1692   -0.0199   -0.0222
          36    0.0498   -0.0533   -0.0245    0.2122   -0.1454   -0.1478    0.1410   -0.0032
          37    0.0117   -0.0696    0.1339   -0.1105   -0.0491    0.1134    0.0911    0.0110
          38   -0.0230   -0.0343   -0.2697   -0.0548    0.0998   -0.2283    0.0447   -0.0220
          39    0.3246   -0.0001    0.1965   -0.0000    0.3949    0.0150    0.0004   -0.0367


   Root No.      17        18        19        20        21        22        23        24

                10 A'      8 A"      9 A"     11 A'     10 A"     12 A'     11 A"     13 A'  

                1209.1    1245.9    1299.0    1307.0    1362.7    1400.3    1535.7    1620.6
  
           1    0.0863    0.1109    0.1341    0.1343    0.0509    0.0575    0.0799    0.1179
           2   -0.0804   -0.1042    0.0305   -0.0382   -0.0728   -0.1403   -0.1877   -0.0332
           3   -0.0947   -0.0967   -0.0746   -0.1155   -0.1876   -0.3243   -0.2937    0.0252
           4   -0.0262    0.1653    0.0879   -0.0371    0.0283    0.0679    0.1217   -0.3981
           5    0.0530    0.0821    0.0438    0.0747    0.0140   -0.1368    0.0606    0.8023
           6    0.0042   -0.0002   -0.0003   -0.0114   -0.0000   -0.0484   -0.0003    0.2428
           7    0.0114   -0.0159    0.1050   -0.0509   -0.0271    0.0765   -0.1013   -0.0448
           8   -0.1168    0.1516    0.0893   -0.1303    0.0848   -0.1308    0.1781   -0.1136
           9   -0.0952    0.0964    0.0737   -0.1155    0.1874   -0.3245    0.2930    0.0253
          10    0.2934   -0.0886   -0.1455    0.0945   -0.1032    0.2164   -0.0918    0.0606
          11    0.1553   -0.0726   -0.0235    0.0693    0.0382    0.1011   -0.2201   -0.0887
          12    0.1441   -0.0616   -0.0325    0.1154    0.0753    0.0762   -0.2703   -0.1106
          13   -0.1023   -0.1894   -0.1333   -0.0955    0.0949    0.1096   -0.0030    0.0695
          14   -0.1520   -0.0993   -0.2077   -0.2929    0.3096    0.2433    0.0607    0.0860
          15   -0.0883   -0.0653   -0.1313   -0.1772    0.1153    0.0604   -0.0122    0.0253
          16   -0.1326   -0.1161   -0.0459   -0.0181   -0.1085   -0.0871   -0.0701   -0.0875
          17    0.0317    0.0377    0.0453    0.0252   -0.0088   -0.0353   -0.0228    0.0347
          18   -0.0889   -0.1567   -0.1821   -0.3023    0.4278    0.3606    0.0798    0.0717
          19   -0.1621   -0.0617    0.0827    0.0620    0.0639    0.0122   -0.0734    0.0209
          20   -0.3654   -0.0963    0.4306    0.3378    0.2035    0.1492   -0.1069    0.0343
          21   -0.2241   -0.0768    0.3587    0.3038    0.1759    0.1801   -0.0389    0.0082
          22   -0.0009    0.7202   -0.1353   -0.0066    0.2582   -0.0126   -0.2997   -0.0010
          23    0.0018    0.3574   -0.0675    0.0135    0.1281    0.0256   -0.1491    0.0019
          24    0.0981   -0.0004    0.0004    0.0352   -0.0001    0.0566    0.0005    0.0012
          25    0.3887   -0.1139    0.3927   -0.3062    0.2006   -0.1260   -0.1294   -0.0400
          26   -0.0916    0.0090   -0.1950    0.1550   -0.0723    0.0806    0.0058    0.0041
          27   -0.2247    0.0770   -0.3589    0.3040   -0.1760    0.1801    0.0391    0.0083
          28    0.1826   -0.1936   -0.2462    0.2908    0.3038   -0.2601    0.0463   -0.1105
          29   -0.0104   -0.0906    0.0201   -0.1012   -0.1116    0.0598   -0.0386   -0.0033
          30   -0.0886    0.0655    0.1315   -0.1775   -0.1156    0.0605    0.0121    0.0254
          31    0.0548   -0.0400    0.0084   -0.0095   -0.0731    0.0812   -0.0608    0.0254
          32    0.1251   -0.1151   -0.0636    0.0294   -0.0813    0.0482   -0.0418    0.0908
          33   -0.0893    0.1566    0.1816   -0.3023   -0.4277    0.3604   -0.0802    0.0716
          34   -0.3006   -0.1113   -0.1064   -0.1122   -0.0320   -0.2112   -0.2303    0.0339
          35   -0.1404   -0.0268   -0.1022   -0.0332   -0.1054   -0.1113    0.0597   -0.1023
          36    0.1450    0.0619    0.0330    0.1157   -0.0751    0.0767    0.2708   -0.1106
          37   -0.1491    0.0554    0.0096   -0.0308   -0.1112   -0.0770    0.4792   -0.0166
          38    0.3004    0.0273    0.0041    0.0624   -0.0553    0.1554    0.2373    0.0334
          39    0.1040    0.0001    0.0005    0.0948    0.0001    0.1452    0.0002    0.0390


   Root No.      25        26        27        28        29        30        31        32

                14 A'     12 A"     13 A"     15 A'     16 A'     14 A"     17 A'     15 A"  

                1663.1    1672.0    2688.6    2694.1    2744.1    2745.0    2765.9    2766.9
  
           1    0.0425    0.0133    0.0407    0.0476   -0.0172   -0.0242    0.0380   -0.0456
           2   -0.1938    0.1341    0.1474    0.1488   -0.0224   -0.0441    0.0834   -0.0928
           3   -0.2416    0.1678   -0.1226   -0.1213    0.0444    0.0208    0.0905   -0.0962
           4   -0.0767   -0.2529   -0.0183   -0.0134    0.0048    0.0035    0.0064   -0.0364
           5    0.1544   -0.1257   -0.0091    0.0270   -0.0097    0.0017   -0.0130   -0.0181
           6    0.0399    0.0004    0.0001   -0.0103   -0.0014    0.0001    0.0015    0.0001
           7    0.1286    0.1150    0.1422   -0.1474    0.0287   -0.0495   -0.0893   -0.1008
           8   -0.1515   -0.0714   -0.0568    0.0519   -0.0003    0.0070    0.0200    0.0193
           9   -0.2415   -0.1671    0.1227   -0.1212    0.0450   -0.0204    0.0914    0.0964
          10   -0.3890   -0.3998   -0.0183    0.0167    0.1208   -0.1140   -0.0094   -0.0018
          11    0.1581    0.0999   -0.0164    0.0189    0.0659   -0.0697    0.0129    0.0193
          12    0.3784    0.2683   -0.0101    0.0147    0.0925   -0.1008    0.0268    0.0362
          13    0.0628   -0.0242   -0.0213   -0.0197    0.0063    0.0005    0.0254   -0.0223
          14    0.0238    0.0020   -0.2205   -0.2116    0.0532    0.0149    0.1559   -0.1691
          15   -0.0245   -0.0003    0.5231    0.5088   -0.1302   -0.0532   -0.3146    0.3372
          16   -0.0111    0.0140   -0.1221   -0.1318    0.0122    0.0573   -0.1823    0.2028
          17   -0.0253   -0.0006   -0.3173   -0.3370    0.0352    0.1516   -0.4803    0.5308
          18   -0.0240    0.0464   -0.0514   -0.0523    0.0082    0.0176   -0.0377    0.0408
          19   -0.0007   -0.0360    0.1070    0.1113    0.4744    0.4970    0.0346   -0.0776
          20   -0.0900   -0.0006    0.0417    0.0442    0.1787    0.1876    0.0126   -0.0304
          21   -0.0483   -0.0432   -0.0803   -0.0852   -0.3813   -0.3967   -0.0295    0.0658
          22    0.0113    0.0541   -0.0002   -0.0060   -0.0843   -0.0016    0.1180    0.0017
          23   -0.0227    0.0272   -0.0000    0.0122    0.1701   -0.0005   -0.2382    0.0015
          24   -0.0370   -0.0003   -0.0001    0.0170    0.2242    0.0001   -0.3134    0.0004
          25    0.0721   -0.0224    0.0980   -0.1026   -0.4303    0.4496   -0.0313   -0.0711
          26   -0.0540   -0.0279    0.0601   -0.0621   -0.2707    0.2824   -0.0203   -0.0432
          27   -0.0483    0.0431    0.0802   -0.0851   -0.3811    0.3954   -0.0294   -0.0656
          28   -0.0569   -0.0127   -0.1890    0.1810   -0.0461    0.0122   -0.1401   -0.1480
          29   -0.0357   -0.0211    0.1160   -0.1120    0.0271   -0.0087    0.0742    0.0838
          30   -0.0244    0.0004   -0.5230    0.5086   -0.1301    0.0529   -0.3154   -0.3361
          31    0.0269    0.0081   -0.3265    0.3480   -0.0356    0.1554    0.4945    0.5440
          32   -0.0066    0.0112    0.0946   -0.0988    0.0114   -0.0461   -0.1458   -0.1591
          33   -0.0240   -0.0459    0.0518   -0.0526    0.0085   -0.0176   -0.0380   -0.0409
          34    0.1094   -0.1626   -0.0242   -0.0252   -0.1255   -0.1246   -0.0048    0.0142
          35    0.4058   -0.3787   -0.0046   -0.0018   -0.0559   -0.0485    0.0155   -0.0130
          36    0.3778   -0.2684    0.0101    0.0148    0.0919    0.1010    0.0263   -0.0365
          37    0.1004    0.5129   -0.0036    0.0020    0.0217   -0.0278   -0.0287    0.0202
          38   -0.2023    0.2552   -0.0017   -0.0040   -0.0439   -0.0136    0.0579    0.0102
          39   -0.2180   -0.0008   -0.0001   -0.0040   -0.0469   -0.0002    0.0769   -0.0004


   Root No.      33

                18 A'  

                2771.1
  
           1    0.0231
           2    0.0512
           3    0.0400
           4    0.0003
           5   -0.0005
           6    0.0033
           7   -0.0547
           8    0.0127
           9    0.0401
          10   -0.0294
          11   -0.0295
          12   -0.0418
          13    0.0112
          14    0.0642
          15   -0.1229
          16   -0.0918
          17   -0.2412
          18   -0.0196
          19   -0.1526
          20   -0.0590
          21    0.1208
          22   -0.2376
          23    0.4794
          24    0.6288
          25    0.1393
          26    0.0860
          27    0.1206
          28   -0.0580
          29    0.0298
          30   -0.1228
          31    0.2475
          32   -0.0726
          33   -0.0198
          34    0.0412
          35    0.0055
          36   -0.0419
          37    0.0608
          38   -0.1228
          39   -0.1668


          DESCRIPTION OF VIBRATIONS


 VIBRATION    1    1A"      ATOM PAIR        ENERGY CONTRIBUTION    RADIAL
 FREQ.     -2032.42        H  2 --  C  3          -57.2% (-73.9%)    91.4%
 T-DIPOLE    0.0371        C  1 --  H  2          -57.1% (-73.9%)    91.1%
 TRAVEL      0.1326        C  4 --  C 13           -2.1% (-14.1%)    97.1%
 RED. MASS   0.6445        C 12 --  C 13           -2.1% (-14.1%)    97.0%
 EFF. MASS   1.8865

 VIBRATION    2    2A"      ATOM PAIR        ENERGY CONTRIBUTION    RADIAL
 FREQ.       272.50        C  1 --  C 12          +16.5% (162.8%)     0.0%
 T-DIPOLE    0.0744        C  3 --  C  4          +16.4% (162.7%)     0.0%
 TRAVEL      0.0846        C  1 --  H  5           +8.3% (115.6%)    87.2%
 RED. MASS   0.9437        C  3 --  H 10           +8.3% (115.6%)    87.9%
 EFF. MASS  34.5612

 VIBRATION    3    1A'      ATOM PAIR        ENERGY CONTRIBUTION    RADIAL
 FREQ.       421.96        C  4 --  C 13          +14.0% ( 86.3%)     0.0%
 T-DIPOLE    0.1362        C 12 --  C 13          +14.0% ( 86.2%)     0.0%
 TRAVEL      0.1049        H  2 --  C  3          +10.5% ( 74.5%)    36.4%
 RED. MASS   0.7954        C  1 --  H  2          +10.4% ( 74.5%)    36.2%
 EFF. MASS  14.5196

 VIBRATION    4    2A'      ATOM PAIR        ENERGY CONTRIBUTION    RADIAL
 FREQ.       447.48        C  3 --  C  4          +10.4% ( 80.7%)     0.4%
 T-DIPOLE    0.1737        C  1 --  C 12          +10.4% ( 80.7%)     0.5%
 TRAVEL      0.0899        H  2 --  C  3           +9.9% ( 78.5%)    63.2%
 RED. MASS   1.6079        C  1 --  H  2           +9.9% ( 78.5%)    62.9%
 EFF. MASS  18.6632

 VIBRATION    5    3A"      ATOM PAIR        ENERGY CONTRIBUTION    RADIAL
 FREQ.       495.65        C  3 --  C  4          +11.7% (108.6%)     0.1%
 T-DIPOLE    0.2844        C  1 --  C 12          +11.7% (108.6%)     0.1%
 TRAVEL      0.0907        C 12 --  C 13           +8.8% ( 93.9%)     0.9%
 RED. MASS   1.5699        C  4 --  C 13           +8.8% ( 93.9%)     0.9%
 EFF. MASS  16.5228

 VIBRATION    6    3A'      ATOM PAIR        ENERGY CONTRIBUTION    RADIAL
 FREQ.       606.25        C  3 --  H 11          +12.2% ( 62.9%)     0.5%
 T-DIPOLE    0.1589        C  1 --  H  6          +12.2% ( 62.9%)     0.4%
 TRAVEL      0.1581        C  1 --  H  5          +10.6% ( 58.5%)     0.8%
 RED. MASS   0.2358        C  3 --  H 10          +10.6% ( 58.5%)     0.7%
 EFF. MASS   4.4473

 VIBRATION    7    4A'      ATOM PAIR        ENERGY CONTRIBUTION    RADIAL
 FREQ.       726.34        C 12 --  C 13          +17.6% ( 82.5%)     0.2%
 T-DIPOLE    0.4211        C  4 --  C 13          +17.6% ( 82.5%)     0.2%
 TRAVEL      0.0963        H  8 --  C 13          +10.2% ( 62.9%)    68.9%
 RED. MASS   1.0034        C  1 --  C 12           +9.8% ( 61.6%)     0.2%
 EFF. MASS  10.0078

 VIBRATION    8    4A"      ATOM PAIR        ENERGY CONTRIBUTION    RADIAL
 FREQ.       756.76        C  1 --  H  6          +25.2% ( 65.0%)     3.0%
 T-DIPOLE    0.1555        C  3 --  H 11          +25.2% ( 65.0%)     3.2%
 TRAVEL      0.1922        C  1 --  H  5          +15.3% ( 50.6%)    10.3%
 RED. MASS   0.2270        C  3 --  H 10          +15.3% ( 50.6%)     9.8%
 EFF. MASS   2.4111

 VIBRATION    9    5A'      ATOM PAIR        ENERGY CONTRIBUTION    RADIAL
 FREQ.       841.59        H  8 --  C 13          +26.9% ( 69.3%)     5.2%
 T-DIPOLE    0.9258        C  4 --  H  9          +15.0% ( 51.8%)     2.0%
 TRAVEL      0.1563        H  7 --  C 12          +15.0% ( 51.8%)     1.7%
 RED. MASS   0.3501        C  4 --  C 13           +7.6% ( 36.7%)     0.3%
 EFF. MASS   3.2779

 VIBRATION   10    5A"      ATOM PAIR        ENERGY CONTRIBUTION    RADIAL
 FREQ.       945.34        C  4 --  H  9          +20.0% ( 50.1%)     0.5%
 T-DIPOLE    0.2843        H  7 --  C 12          +20.0% ( 50.1%)     0.4%
 TRAVEL      0.1751        C  3 --  H 10          +13.8% ( 41.5%)     0.9%
 RED. MASS   0.2066        C  1 --  H  5          +13.8% ( 41.5%)     1.0%
 EFF. MASS   2.3275        C  3 --  H 11          +11.0% ( 37.1%)    15.6%
                           C  1 --  H  6          +11.0% ( 37.1%)    15.4%

 VIBRATION   11    6A'      ATOM PAIR        ENERGY CONTRIBUTION    RADIAL
 FREQ.       974.85        H  8 --  C 13          +29.0% ( 64.4%)     0.0%
 T-DIPOLE    0.4554        C  3 --  H 10           +9.9% ( 37.7%)     8.3%
 TRAVEL      0.1488        C  1 --  H  5           +9.9% ( 37.7%)     8.6%
 RED. MASS   0.3858        H  2 --  C  3           +7.2% ( 32.2%)     1.3%
 EFF. MASS   3.1242

 VIBRATION   12    6A"      ATOM PAIR        ENERGY CONTRIBUTION    RADIAL
 FREQ.      1032.11        C  1 --  H  5          +11.8% ( 43.5%)    11.2%
 T-DIPOLE    0.0791        C  3 --  H 10          +11.8% ( 43.5%)    10.7%
 TRAVEL      0.1205        C  4 --  H  9          +11.4% ( 42.8%)     0.8%
 RED. MASS   0.4644        H  7 --  C 12          +11.4% ( 42.8%)     1.0%
 EFF. MASS   4.4975        C  3 --  H 11          +11.3% ( 42.6%)    19.8%
                           C  1 --  H  6          +11.3% ( 42.6%)    19.2%

 VIBRATION   13    7A'      ATOM PAIR        ENERGY CONTRIBUTION    RADIAL
 FREQ.      1051.06        C  3 --  H 11          +12.7% ( 50.9%)    28.8%
 T-DIPOLE    0.1949        C  1 --  H  6          +12.7% ( 50.8%)    28.4%
 TRAVEL      0.1016        C  4 --  C 13           +9.9% ( 45.0%)    11.3%
 RED. MASS   0.7074        C 12 --  C 13           +9.9% ( 45.0%)    11.1%
 EFF. MASS   6.2186

 VIBRATION   14    8A'      ATOM PAIR        ENERGY CONTRIBUTION    RADIAL
 FREQ.      1088.32        C  3 --  H 11          +13.3% ( 40.0%)     0.1%
 T-DIPOLE    0.7894        C  1 --  H  6          +13.3% ( 40.0%)     0.2%
 TRAVEL      0.1205        H  7 --  C 12           +7.8% ( 30.7%)     0.3%
 RED. MASS   0.3960        C  4 --  H  9           +7.8% ( 30.7%)     0.2%
 EFF. MASS   4.2696

 VIBRATION   15    7A"      ATOM PAIR        ENERGY CONTRIBUTION    RADIAL
 FREQ.      1155.73        C  1 --  H  6          +17.4% ( 39.4%)     2.2%
 T-DIPOLE    0.4419        C  3 --  H 11          +17.4% ( 39.4%)     2.2%
 TRAVEL      0.1409        C  3 --  H 10          +16.2% ( 38.0%)     3.1%
 RED. MASS   0.2472        C  1 --  H  5          +16.2% ( 38.0%)     3.0%
 EFF. MASS   2.9402        H  8 --  C 13          +10.8% ( 31.0%)     0.0%

 VIBRATION   16    9A'      ATOM PAIR        ENERGY CONTRIBUTION    RADIAL
 FREQ.      1182.20        C  1 --  H  2          +40.3% ( 72.0%)     1.1%
 T-DIPOLE    0.5415        H  2 --  C  3          +40.3% ( 71.9%)     1.1%
 TRAVEL      0.2043        C  1 --  H  5           +5.8% ( 27.4%)     3.6%
 RED. MASS   0.4506        C  3 --  H 10           +5.8% ( 27.4%)     3.5%
 EFF. MASS   1.3662

 VIBRATION   17   10A'      ATOM PAIR        ENERGY CONTRIBUTION    RADIAL
 FREQ.      1209.06        H  7 --  C 12          +17.4% ( 54.1%)    33.4%
 T-DIPOLE    0.1163        C  4 --  H  9          +17.4% ( 54.1%)    33.3%
 TRAVEL      0.0934        C 12 --  C 13          +15.3% ( 50.9%)    74.0%
 RED. MASS   0.7015        C  4 --  C 13          +15.3% ( 50.9%)    73.8%
 EFF. MASS   6.3950

 VIBRATION   18    8A"      ATOM PAIR        ENERGY CONTRIBUTION    RADIAL
 FREQ.      1245.89        H  8 --  C 13          +63.4% ( 80.3%)     0.0%
 T-DIPOLE    0.0436        C  1 --  C 12           +4.3% ( 21.0%)    56.9%
 TRAVEL      0.1607        C  3 --  C  4           +4.3% ( 21.0%)    57.2%
 RED. MASS   0.4637        C  1 --  H  6           +4.2% ( 20.7%)     2.3%
 EFF. MASS   2.0962

 VIBRATION   19    9A"      ATOM PAIR        ENERGY CONTRIBUTION    RADIAL
 FREQ.      1298.97        C  4 --  H  9          +33.4% ( 57.2%)     2.2%
 T-DIPOLE    0.1705        H  7 --  C 12          +33.4% ( 57.2%)     2.1%
 TRAVEL      0.1679        C  3 --  H 10           +6.1% ( 24.5%)     2.8%
 RED. MASS   0.2503        C  1 --  H  5           +6.1% ( 24.5%)     3.1%
 EFF. MASS   1.8417

 VIBRATION   20   11A'      ATOM PAIR        ENERGY CONTRIBUTION    RADIAL
 FREQ.      1306.98        H  7 --  C 12          +21.2% ( 45.0%)     7.2%
 T-DIPOLE    0.1795        C  4 --  H  9          +21.2% ( 45.0%)     7.3%
 TRAVEL      0.1443        C  3 --  H 10           +9.6% ( 30.3%)     3.2%
 RED. MASS   0.1843        C  1 --  H  5           +9.6% ( 30.3%)     3.5%
 EFF. MASS   2.4769

 VIBRATION   21   10A"      ATOM PAIR        ENERGY CONTRIBUTION    RADIAL
 FREQ.      1362.67        C  3 --  H 11          +18.0% ( 43.4%)     0.3%
 T-DIPOLE    0.2927        C  1 --  H  6          +18.0% ( 43.4%)     0.4%
 TRAVEL      0.1601        C  1 --  H  5          +10.7% ( 33.6%)     4.5%
 RED. MASS   0.1784        C  3 --  H 10          +10.7% ( 33.6%)     4.9%
 EFF. MASS   1.9312

 VIBRATION   22   12A'      ATOM PAIR        ENERGY CONTRIBUTION    RADIAL
 FREQ.      1400.28        C  3 --  H 11          +12.9% ( 45.6%)     1.3%
 T-DIPOLE    0.7899        C  1 --  H  6          +12.9% ( 45.6%)     1.5%
 TRAVEL      0.0923        C  3 --  C  4           +9.6% ( 39.3%)    66.5%
 RED. MASS   0.5781        C  1 --  C 12           +9.6% ( 39.3%)    66.6%
 EFF. MASS   5.6469

 VIBRATION   23   11A"      ATOM PAIR        ENERGY CONTRIBUTION    RADIAL
 FREQ.      1535.73        H  8 --  C 13          +15.7% ( 55.9%)     0.0%
 T-DIPOLE    0.1685        C 12 --  C 13          +15.3% ( 55.2%)    37.0%
 TRAVEL      0.0680        C  4 --  C 13          +15.3% ( 55.2%)    37.0%
 RED. MASS   1.7944        C  1 --  C 12          +11.2% ( 47.3%)    90.1%
 EFF. MASS   9.4866        C  3 --  C  4          +11.2% ( 47.3%)    90.2%

 VIBRATION   24   13A'      ATOM PAIR        ENERGY CONTRIBUTION    RADIAL
 FREQ.      1620.62        C  1 --  H  2          +46.3% ( 91.1%)    26.3%
 T-DIPOLE    0.6946        H  2 --  C  3          +46.3% ( 91.1%)    26.0%
 TRAVEL      0.1585        C 12 --  C 13           +1.0% ( 13.4%)    30.8%
 RED. MASS   0.7677        C  4 --  C 13           +1.0% ( 13.4%)    30.9%
 EFF. MASS   1.6563

 VIBRATION   25   14A'      ATOM PAIR        ENERGY CONTRIBUTION    RADIAL
 FREQ.      1663.14        C  3 --  C  4          +15.8% ( 57.2%)    89.8%
 T-DIPOLE    1.3571        C  1 --  C 12          +15.8% ( 57.2%)    89.8%
 TRAVEL      0.0601        C  4 --  C 13          +14.6% ( 55.0%)    56.1%
 RED. MASS   2.7986        C 12 --  C 13          +14.6% ( 55.0%)    56.0%
 EFF. MASS  11.2329        C  4 --  H  9          +10.1% ( 45.7%)     0.3%
                           H  7 --  C 12          +10.1% ( 45.7%)     0.3%

 VIBRATION   26   12A"      ATOM PAIR        ENERGY CONTRIBUTION    RADIAL
 FREQ.      1671.96        C 12 --  C 13          +24.1% ( 66.3%)    98.4%
 T-DIPOLE    2.6386        C  4 --  C 13          +24.1% ( 66.3%)    98.4%
 TRAVEL      0.0638        C  1 --  C 12          +11.8% ( 46.4%)    74.8%
 RED. MASS   2.7564        C  3 --  C  4          +11.8% ( 46.4%)    74.7%
 EFF. MASS   9.9097        H  8 --  C 13          +10.1% ( 43.0%)     0.0%

 VIBRATION   27   13A"      ATOM PAIR        ENERGY CONTRIBUTION    RADIAL
 FREQ.      2688.58        C  3 --  H 10          +33.7% ( 60.0%)    99.2%
 T-DIPOLE    0.1042        C  1 --  H  5          +33.7% ( 60.0%)    99.4%
 TRAVEL      0.1313        C  3 --  H 11          +13.4% ( 37.8%)    95.8%
 RED. MASS   0.2745        C  1 --  H  6          +13.4% ( 37.8%)    95.4%
 EFF. MASS   1.4553

 VIBRATION   28   15A'      ATOM PAIR        ENERGY CONTRIBUTION    RADIAL
 FREQ.      2694.07        C  1 --  H  5          +31.8% ( 58.2%)    99.3%
 T-DIPOLE    0.7635        C  3 --  H 10          +31.8% ( 58.2%)    99.1%
 TRAVEL      0.1306        C  1 --  H  6          +15.0% ( 40.0%)    96.0%
 RED. MASS   0.2600        C  3 --  H 11          +15.0% ( 40.0%)    96.3%
 EFF. MASS   1.4684

 VIBRATION   29   16A'      ATOM PAIR        ENERGY CONTRIBUTION    RADIAL
 FREQ.      2744.12        C  4 --  H  9          +42.3% ( 65.6%)   100.0%
 T-DIPOLE    0.5655        H  7 --  C 12          +42.1% ( 65.5%)   100.0%
 TRAVEL      0.1332        H  8 --  C 13           +9.1% ( 30.4%)    99.9%
 RED. MASS   0.3542        C  3 --  H 10           +2.1% ( 14.7%)    99.2%
 EFF. MASS   1.3851

 VIBRATION   30   14A"      ATOM PAIR        ENERGY CONTRIBUTION    RADIAL
 FREQ.      2745.04        H  7 --  C 12          +45.9% ( 68.3%)   100.0%
 T-DIPOLE    1.0467        C  4 --  H  9          +45.8% ( 68.2%)   100.0%
 TRAVEL      0.1341        C  1 --  H  6           +2.8% ( 17.0%)    99.3%
 RED. MASS   0.4089        C  3 --  H 11           +2.8% ( 17.0%)    99.5%
 EFF. MASS   1.3667

 VIBRATION   31   17A'      ATOM PAIR        ENERGY CONTRIBUTION    RADIAL
 FREQ.      2765.87        C  3 --  H 11          +27.7% ( 52.2%)    97.7%
 T-DIPOLE    1.1458        C  1 --  H  6          +27.5% ( 52.0%)    98.0%
 TRAVEL      0.1389        H  8 --  C 13          +18.2% ( 42.3%)   100.0%
 RED. MASS   0.2107        C  3 --  H 10          +12.4% ( 34.9%)    92.7%
 EFF. MASS   1.2640        C  1 --  H  5          +12.3% ( 34.8%)    92.2%

 VIBRATION   32   15A"      ATOM PAIR        ENERGY CONTRIBUTION    RADIAL
 FREQ.      2766.92        C  1 --  H  6          +34.0% ( 57.5%)    98.2%
 T-DIPOLE    0.6440        C  3 --  H 11          +33.8% ( 57.4%)    97.9%
 TRAVEL      0.1392        C  1 --  H  5          +14.3% ( 37.3%)    91.7%
 RED. MASS   0.2619        C  3 --  H 10          +14.2% ( 37.2%)    92.2%
 EFF. MASS   1.2585

 VIBRATION   33   18A'      ATOM PAIR        ENERGY CONTRIBUTION    RADIAL
 FREQ.      2771.08        H  8 --  C 13          +71.7% ( 85.2%)   100.0%
 T-DIPOLE    0.4238        C  1 --  H  6           +6.8% ( 26.3%)    98.5%
 TRAVEL      0.1319        C  3 --  H 11           +6.8% ( 26.3%)    98.3%
 RED. MASS   0.5084        C  4 --  H  9           +4.3% ( 20.9%)    99.8%
 EFF. MASS   1.3995

           FORCE CONSTANT IN INTERNAL COORDINATES (Millidynes/A)

    ATOM   CHEMICAL  BOND LENGTH      BOND ANGLE     TWIST ANGLE
   NUMBER   SYMBOL  FORCE CONSTANT  FORCE CONSTANT  FORCE CONSTANT

      1       C        0.000000        0.000000        0.000000
      2       H        4.380314        0.000000        0.000000
      3       C       10.083301       27.941020        0.000000
      4       C       11.139365       50.940878        7.554184
      5       H        4.101141        0.529867        0.794465
      6       H        4.202429        0.569281        0.730358
      7       H        8.176717       11.256280        6.655277
      8       H        8.467510       16.086831        2.760355
      9       H        4.220355        1.113351        0.340937
     10       H        4.102698        0.530600        0.791003
     11       H        4.200650        0.568732        0.731605
     12       C        9.036804       13.947423        1.086847
     13       C        9.522868       13.364139        1.003725
 *******************************************************************************
 ** Site#: 29054        For non-commercial use only    Version 18.021W 64BITS **
 *******************************************************************************
 ** Cite this program as: MOPAC2016, Version: 18.021W, James J. P. Stewart,   **
 ** Stewart Computational Chemistry, web: HTTP://OpenMOPAC.net. Days left: 364**
 *******************************************************************************
 **                                                                           **
 **                                MOPAC2016                                  **
 **                                                                           **
 *******************************************************************************

                              PM7 CALCULATION RESULTS


 *******************************************************************************
 *  CALCULATION DONE:                                Mon Jan 22 08:44:33 2018  *
 *  IRC=N      - INTRINSIC REACTION COORDINATE  1 DEFINED
 *  OLDGEO     - PREVIOUS GEOMETRY TO BE USED
 *  RESTART    - CALCULATION RESTARTED
 *  T=         - A TIME OF 172800.0 SECONDS REQUESTED
 *  DUMP=N     - RESTART FILE WRITTEN EVERY  7200.000 SECONDS
 *  HTML       - WRITE HTML SCRIPT TO GENERATE ANIMATION USING JSMOL
 *             - TO DISPLAY IN PDB FORMAT, ADD "PDBOUT"
 *  X-PRIOR    - GEOMETRY CHANGES TAKE PRIORITY IN DRC
 *******************************************************************************
oldgeo irc=1* x-priority=0.1 restart HTML
 Transition state for Pentadiene <=> Pentadiene

  ATOM    CHEMICAL      BOND LENGTH      BOND ANGLE     TWIST ANGLE 
 NUMBER    SYMBOL       (ANGSTROMS)      (DEGREES)       (DEGREES) 
   (I)                     NA:I           NB:NA:I       NC:NB:NA:I       NA    NB    NC 
     1       C          0.00000000       0.0000000       0.0000000        0     0     0
     2       H          1.45597045  *    0.0000000       0.0000000        1     0     0
     3       C          1.45597045     127.4554955  *    0.0000000        2     1     0
     4       C          1.40502746  *  101.1280831  *   55.9895592  *     3     2     1
     5       H          1.08563671  *   87.4865942  *   64.2076807  *     1     2     3
     6       H          1.08162798  *  112.1357353  *  175.9273566  *     1     2     3
     7       H          2.15436727  *  119.9278618  *  -76.1064558  *     1     2     3
     8       H          2.14467828  *  148.6577377  *  -35.2092744  *     4     3     2
     9       H          1.09297416  *  118.6639152  *  139.6801241  *     4     3     2
    10       H          1.08521797  *   87.5881552  *  -64.6589937  *     3     2     1
    11       H          1.08188587  *  112.2883327  * -176.3786431  *     3     2     1
    12       C          1.09260776  *   34.7933458  *   48.1746363  *     7     1     2
    13       C          1.08722378  *   34.4831039  *    8.8224908  *     8     4     3
 


          CARTESIAN COORDINATES 

    NO.       ATOM           X           Y           Z

     1         C          0.0000      0.0000      0.0000
     2         H          1.4560      0.0000      0.0000
     3         C          2.3414      1.1558      0.0000
     4         C          1.8942      1.8400      1.1428
     5         H          0.0476      0.4719     -0.9765
     6         H         -0.4076     -0.9994     -0.0712
     7         H         -1.0748      0.4483      1.8125
     8         H          0.2659      2.4061      2.4187
     9         H          2.6346      2.3040      1.7993
    10         H          1.9453      1.4018     -0.9799
    11         H          3.3840      0.8739     -0.0632
    12         C         -0.2669      0.7624      1.1474
    13         C          0.5739      1.7860      1.5804

 General Reference for PM7:
 "Optimization of Parameters for Semiempirical Methods VI: More Modifications to the 
 NDDO Approximations and Re-optimization of Parameters", J. J. P. Stewart, J. Mol. Mod., 1:32, 19 (2013)
 http://www.springerlink.com/openurl.asp?genre=article&id=doi:10.1007/s00894-012-1667-x

           Empirical Formula: C5 H8  =    13 atoms



      MOLECULAR POINT GROUP   :   Cs  


      RHF CALCULATION, NO. OF DOUBLY OCCUPIED LEVELS = 14


          MOLECULAR WEIGHT =   68.12


          TIME USED UP TO RESTART =                  0.14

    FOR POINT-GROUP Cs   THERE ARE   2 UNIQUE SYMMETRY FUNCTIONS.

           INITIAL VELOCITY IN DRC (Angstroms/Femtosecond)
        -0.04030         0.01219         0.01153
         0.44174         0.21924        -0.00023
        -0.01463        -0.03954        -0.01143
        -0.01613         0.01071         0.01835
         0.10306        -0.02416         0.01329
         0.00979        -0.00124        -0.00217
         0.03516        -0.02815         0.02785
        -0.00466        -0.00221        -0.00007
        -0.00124         0.04511        -0.02790
         0.04313         0.09653        -0.01337
         0.00497         0.00847         0.00229
        -0.00126        -0.01930        -0.01837
         0.01929         0.00963        -0.00005

 GEOMETRY PRIORITY, STEP = 0.1000 ANGSTROMS



     POINT   POTENTIAL  +  ENERGY LOST   =   TOTAL      ERROR    REF%   MOVEMENT
       1      61.49793      0.00000         61.49793   0.00000     1   %  0.0000
       8      60.91421      0.50687         61.42108  -0.05581     2   %  0.0896
      15      59.07317      2.33380         61.40697  -0.06992     3   %  0.1970
      21      56.73717      4.65881         61.39598  -0.08091     4   %  0.2921
      27      53.99075      7.39348         61.38423  -0.09267     5   %  0.3904
      33      50.95348     10.42218         61.37566  -0.10123     6   %  0.4975
      38      48.29686     13.06872         61.36558  -0.11132     7   %  0.5969
      44      45.89949     15.45604         61.35552  -0.12137     8   %  0.6956
      49      43.76063     17.58476         61.34538  -0.13151     9   %  0.7938
      53      41.85733     19.47902         61.33635  -0.14054    10   %  0.8917
      58      40.16718     21.16122         61.32839  -0.14850    11   %  0.9885
      63      38.64906     22.67254         61.32161  -0.15529    12   %  1.0852
      67      37.28369     24.03137         61.31506  -0.16183    13   %  1.1815
      71      36.05138     25.25787         61.30925  -0.16765    14   %  1.2776
      76      34.93090     26.37294         61.30384  -0.17305    15   %  1.3736
      80      33.90863     27.38970         61.29833  -0.17857    16   %  1.4695
      84      32.97016     28.32324         61.29340  -0.18349    17   %  1.5649
      88      32.09876     29.19033         61.28909  -0.18781    18   %  1.6603
      93      31.28355     30.00214         61.28570  -0.19120    19   %  1.7554
      97      30.51760     30.76504         61.28264  -0.19426    20   %  1.8497
     101      29.79165     31.48798         61.27963  -0.19726    21   %  1.9431
     105      29.09901     32.17726         61.27627  -0.20062    22   %  2.0357
     110      28.43758     32.83564         61.27322  -0.20367    23   %  2.1270
     114      27.80657     33.46364         61.27021  -0.20668    24   %  2.2167
     118      27.19957     34.06792         61.26749  -0.20941    25   %  2.3054
[...]
     839      18.92280     76.87530         95.79810  34.32121   148   %  5.3414
     845      18.91973     77.22255         96.14228  34.66539   149   %  5.3501
     852      18.93178     77.63590         96.56768  35.09079   150   %  5.3601
     858      18.93001     77.98690         96.91691  35.44002   151   %  5.3690
     865      18.91078     78.39429         97.30507  35.82817   152   %  5.3797
     872      18.92473     78.81307         97.73780  36.26091   153   %  5.3899
     878      18.92291     79.16841         98.09131  36.61442   154   %  5.3988
     885      18.90274     79.58419         98.48693  37.01004   155   %  5.4093
     891      18.90037     79.94648         98.84685  37.36996   156   %  5.4182
     898      18.91603     80.36659         99.28262  37.80573   157   %  5.4282
     904      18.91330     80.72678         99.64008  38.16319   158   %  5.4370
     911      18.89320     81.13673        100.02993  38.55304   159   %  5.4473
     917      18.89115     81.48908        100.38023  38.90333   160   %  5.4558
     924      18.90604     81.90650        100.81254  39.33564   161   %  5.4656
     930      18.90501     82.26618        101.17118  39.69429   162   %  5.4741
     937      18.88404     82.68751        101.57154  40.09465   163   %  5.4842
     943      18.88201     83.05709        101.93910  40.46221   164   %  5.4927
     950      18.90031     83.48608        102.38639  40.90949   165   %  5.5027
     957      18.87742     83.91806        102.79548  41.31858   166   %  5.5126
     963      18.87553     84.29504        103.17057  41.69367   167   %  5.5212
     970      18.89697     84.74609        103.64306  42.16616   168   %  5.5313
     976      18.89620     85.12569        104.02188  42.54499   169   %  5.5399
     983      18.86941     85.56834        104.43775  42.96086   170   %  5.5496
     989      18.86767     85.95698        104.82465  43.34776   171   %  5.5581
     996      18.89450     86.43644        105.33094  43.85405   172   %  5.5685
    1002      18.89294     86.84258        105.73552  44.25863   173   %  5.5771
    1008      18.89231     87.25574        106.14806  44.67116   174   %  5.5858
    1015      18.86053     87.72553        106.58606  45.10916   175   %  5.5954
    1021      18.85912     88.14662        107.00574  45.52885   176   %  5.6040
    1028      18.89218     88.67940        107.57159  46.09469   177   %  5.6149
    1034      18.88994     89.11965        108.00958  46.53269   178   %  5.6237
    1041      18.85477     89.64352        108.49829  47.02139   179   %  5.6334
    1047      18.85399     90.12115        108.97514  47.49824   180   %  5.6424
    1053      18.85315     90.63473        109.48788  48.01099   181   %  5.6517
    1059      18.85193     91.16795        110.01988  48.54299   182   %  5.6612
    1066      18.89675     91.84155        110.73830  49.26141   183   %  5.6733


 IRC CALCULATION COMPLETE 
           INITIAL VELOCITY IN DRC (Angstroms/Femtosecond)
         0.04030        -0.01219        -0.01153
        -0.44174        -0.21924         0.00023
         0.01463         0.03954         0.01143
         0.01613        -0.01071        -0.01835
        -0.10306         0.02416        -0.01329
        -0.00979         0.00124         0.00217
        -0.03516         0.02815        -0.02785
         0.00466         0.00221         0.00007
         0.00124        -0.04511         0.02790
        -0.04313        -0.09653         0.01337
        -0.00497        -0.00847        -0.00229
         0.00126         0.01930         0.01837
        -0.01929        -0.00963         0.00005

 GEOMETRY PRIORITY, STEP = 0.1000 ANGSTROMS



     POINT   POTENTIAL  +  ENERGY LOST   =   TOTAL      ERROR    REF%   MOVEMENT
       1      61.49793      0.00000         61.49793   0.00000     1   %  0.0000
       7      61.15373      0.34647         61.50020   0.00117     2   %  0.0866
      14      59.54921      1.93102         61.48024  -0.01879     3   %  0.1972
      20      57.35918      4.10241         61.46159  -0.03744     4   %  0.2932
      26      54.69924      6.75383         61.45307  -0.04596     5   %  0.3919
      31      52.12647      9.32289         61.44936  -0.04967     6   %  0.4838
      37      49.24654     12.19175         61.43830  -0.06073     7   %  0.5907
      42      46.63832     14.78883         61.42715  -0.07188     8   %  0.6966
      47      44.47012     16.94633         61.41645  -0.08258     9   %  0.7948
      52      42.73652     18.67192         61.40844  -0.09059    10   %  0.8819
      57      40.80921     20.59086         61.40007  -0.09896    11   %  0.9897
      61      39.26295     22.13039         61.39334  -0.10569    12   %  1.0862
      66      37.86558     23.52146         61.38704  -0.11199    13   %  1.1827
      70      36.60441     24.77706         61.38147  -0.11756    14   %  1.2788
      74      35.46045     25.91585         61.37629  -0.12274    15   %  1.3746
      79      34.41070     26.96010         61.37080  -0.12823    16   %  1.4707
      83      33.44804     27.91763         61.36567  -0.13336    17   %  1.5663
      87      32.55794     28.80312         61.36106  -0.13796    18   %  1.6615
      92      31.72420     29.63298         61.35718  -0.14185    19   %  1.7566
      96      30.94135     30.41229         61.35364  -0.14539    20   %  1.8509
     100      30.20009     31.15023         61.35032  -0.14871    21   %  1.9445
     104      29.49358     31.85291         61.34649  -0.15254    22   %  2.0372
     109      28.81879     32.52413         61.34292  -0.15611    23   %  2.1286
     113      28.17473     33.16483         61.33957  -0.15946    24   %  2.2185
     117      27.55899     33.77737         61.33636  -0.16267    25   %  2.3068
     121      26.97178     34.36174         61.33352  -0.16551    26   %  2.3934
     126      26.40785     34.92276         61.33062  -0.16841    27   %  2.4791
     130      25.87058     35.45726         61.32785  -0.17118    28   %  2.5634
     134      25.35736     35.96802         61.32538  -0.17365    29   %  2.6470
     139      24.86945     36.45390         61.32335  -0.17568    30   %  2.7297
     143      24.40586     36.91549         61.32135  -0.17768    31   %  2.8119
     147      23.96684     37.35221         61.31905  -0.17998    32   %  2.8936
     151      23.55313     37.76376         61.31689  -0.18214    33   %  2.9748
     155      23.16060     38.15408         61.31468  -0.18435    34   %  3.0563
     159      22.79154     38.52098         61.31253  -0.18650    35   %  3.1378
     164      22.44874     38.86157         61.31031  -0.18872    36   %  3.2185
     168      22.12725     39.18100         61.30825  -0.19077    37   %  3.2997
     172      21.82806     39.47812         61.30618  -0.19285    38   %  3.3809
     176      21.55074     39.75337         61.30411  -0.19492    39   %  3.4623
     180      21.29476     40.00750         61.30226  -0.19677    40   %  3.5440
     184      21.05991     40.24058         61.30049  -0.19854    41   %  3.6256
     187      20.89502     40.40600         61.30102  -0.19801    42   %  3.6884
     191      20.70929     40.68132         61.39061  -0.10842    43   %  3.7641
     195      20.59293     40.93651         61.52945   0.03042    44   %  3.8158
     200      20.48806     41.19807         61.68613   0.18710    45   %  3.8660
     204      20.39403     41.46151         61.85554   0.35651    46   %  3.9145
     208      20.30896     41.72694         62.03589   0.53686    47   %  3.9606
     213      20.23332     41.99511         62.22844   0.72941    48   %  4.0033
     217      20.16479     42.26809         62.43288   0.93385    49   %  4.0438
     222      20.10166     42.54586         62.64752   1.14849    50   %  4.0854
     227      20.04472     42.82791         62.87264   1.37361    51   %  4.1238
     232      19.99308     43.11441         63.10748   1.60846    52   %  4.1601
     237      19.94579     43.40398         63.34976   1.85073    53   %  4.1968
     242      19.90285     43.69764         63.60049   2.10147    54   %  4.2301
     247      19.86355     43.99611         63.85966   2.36063    55   %  4.2625
     252      19.83148     44.25613         64.08761   2.58859    56   %  4.2889
     258      19.79377     44.60184         64.39561   2.89658    57   %  4.3230
     263      19.76373     44.91135         64.67507   3.17605    58   %  4.3516
     268      19.73752     45.22323         64.96075   3.46172    59   %  4.3799
     274      19.71099     45.53791         65.24890   3.74987    60   %  4.4053
     280      19.68590     45.85403         65.53993   4.04090    61   %  4.4291
     285      19.66284     46.17302         65.83586   4.33683    62   %  4.4519
     291      19.64163     46.49627         66.13790   4.63887    63   %  4.4743
     297      19.62169     46.81766         66.43936   4.94033    64   %  4.4960
     303      19.60310     47.14397         66.74707   5.24804    65   %  4.5166
     309      19.58549     47.47108         67.05657   5.55754    66   %  4.5364
     315      19.56849     47.80074         67.36923   5.87020    67   %  4.5552
     321      19.55419     48.12328         67.67746   6.17843    68   %  4.5732
     327      19.53664     48.46511         68.00175   6.50272    69   %  4.5903
     333      19.52362     48.78532         68.30893   6.80991    70   %  4.6069
     339      19.50679     49.13311         68.63990   7.14087    71   %  4.6225
     345      19.49467     49.45209         68.94676   7.44773    72   %  4.6377
     351      19.48231     49.78680         69.26911   7.77008    73   %  4.6523
     357      19.47056     50.12340         69.59396   8.09494    74   %  4.6666
     363      19.45673     50.45617         69.91290   8.41387    75   %  4.6801
     369      19.43691     50.82876         70.26567   8.76664    76   %  4.6931
     375      19.43059     51.12257         70.55316   9.05413    77   %  4.7056
     381      19.41864     51.45205         70.87069   9.37166    78   %  4.7179
     388      19.39961     51.83332         71.23294   9.73391    79   %  4.7302
     394      19.39061     52.18479         71.57540  10.07637    80   %  4.7432
     400      19.38002     52.52396         71.90397  10.40494    81   %  4.7550
     406      19.36676     52.82506         72.19182  10.69280    82   %  4.7640
     412      19.35870     53.20376         72.56246  11.06343    83   %  4.7776
     419      19.34663     53.54529         72.89192  11.39289    84   %  4.7881
     425      19.33505     53.88666         73.22171  11.72268    85   %  4.7983
     431      19.32395     54.22872         73.55267  12.05364    86   %  4.8084
     437      19.31755     54.52917         73.84672  12.34769    87   %  4.8183
     444      19.30250     54.91324         74.21574  12.71671    88   %  4.8286
     450      19.29426     55.25521         74.54947  13.05044    89   %  4.8390
     456      19.28475     55.59778         74.88253  13.38350    90   %  4.8491
     462      19.27485     55.94095         75.21580  13.71677    91   %  4.8588
     469      19.26512     56.28486         75.54999  14.05096    92   %  4.8683
     475      19.25616     56.62965         75.88581  14.38678    93   %  4.8773
     481      19.24724     56.97126         76.21851  14.71948    94   %  4.8865
     487      19.23834     57.31422         76.55256  15.05353    95   %  4.8957
     494      19.22937     57.65954         76.88890  15.38988    96   %  4.9052
     500      19.22115     58.00589         77.22704  15.72801    97   %  4.9146
     506      19.21334     58.35073         77.56407  16.06504    98   %  4.9239
     513      19.20472     58.69796         77.90268  16.40365    99   %  4.9328
     519      19.19526     59.04463         78.23988  16.74085   100   %  4.9415
     525      19.18649     59.39171         78.57821  17.07918   101   %  4.9503
     532      19.17777     59.73973         78.91750  17.41847   102   %  4.9592
     538      19.17214     60.08686         79.25900  17.75998   103   %  4.9685
     544      19.16644     60.43411         79.60055  18.10152   104   %  4.9776
     551      19.15955     60.78220         79.94175  18.44272   105   %  4.9866
     557      19.15349     61.11679         80.27028  18.77125   106   %  4.9950
     563      19.14670     61.44980         80.59650  19.09747   107   %  5.0033
     569      19.14005     61.78473         80.92478  19.42575   108   %  5.0117
     576      19.12564     62.17144         81.29708  19.79805   109   %  5.0210
     582      19.11892     62.50532         81.62425  20.12522   110   %  5.0293
     589      19.11789     62.89274         82.01062  20.51159   111   %  5.0394
     595      19.11198     63.22565         82.33762  20.83860   112   %  5.0476
     601      19.10585     63.55674         82.66259  21.16356   113   %  5.0559
     608      19.09384     63.94940         83.04325  21.54422   114   %  5.0655
     614      19.08670     64.27072         83.35742  21.85839   115   %  5.0736
     620      19.08066     64.60328         83.68393  22.18490   116   %  5.0819
     627      19.08067     64.99176         84.07243  22.57340   117   %  5.0917
     633      19.07501     65.32261         84.39762  22.89859   118   %  5.1000
     640      19.06250     65.70923         84.77173  23.27270   119   %  5.1096
     646      19.05667     66.04570         85.10237  23.60334   120   %  5.1179
     652      19.05769     66.43163         85.48931  23.99028   121   %  5.1275
     659      19.05182     66.76740         85.81922  24.32019   122   %  5.1360
     665      19.04640     67.09859         86.14498  24.64595   123   %  5.1443
     672      19.03819     67.49523         86.53342  25.03439   124   %  5.1545
     678      19.03568     67.85368         86.88935  25.39032   125   %  5.1634
     685      19.02936     68.20997         87.23933  25.74030   126   %  5.1725
     691      19.02653     68.53162         87.55815  26.05912   127   %  5.1806
     698      19.01590     68.91594         87.93185  26.43282   128   %  5.1907
     704      19.01139     69.24820         88.25959  26.76056   129   %  5.1993
     711      19.01314     69.63621         88.64935  27.15032   130   %  5.2090
     717      19.00941     69.97138         88.98079  27.48176   131   %  5.2176
     724      18.99878     70.36378         89.36256  27.86353   132   %  5.2281
     730      18.99834     70.72421         89.72255  28.22352   133   %  5.2372
     737      18.99336     71.08493         90.07829  28.57926   134   %  5.2465
     743      18.99091     71.41053         90.40144  28.90241   135   %  5.2549
     750      18.98294     71.80661         90.78955  29.29052   136   %  5.2655
     756      18.97780     72.12540         91.10320  29.60417   137   %  5.2741
     763      18.97661     72.52949         91.50609  30.00706   138   %  5.2844
     769      18.97014     72.89091         91.86106  30.36203   139   %  5.2943
     776      18.96628     73.22742         92.19370  30.69467   140   %  5.3031
     782      18.96238     73.56089         92.52327  31.02424   141   %  5.3119
     789      18.96002     73.98073         92.94076  31.44173   142   %  5.3229
     796      18.95669     74.34397         93.30066  31.80163   143   %  5.3324
     802      18.95645     74.70741         93.66385  32.16482   144   %  5.3416
     809      18.95144     75.07219         94.02362  32.52459   145   %  5.3513
     815      18.94584     75.43479         94.38063  32.88160   146   %  5.3612
     822      18.94569     75.79810         94.74379  33.24477   147   %  5.3704
     829      18.94248     76.16006         95.10254  33.60351   148   %  5.3800
     835      18.93695     76.52553         95.46248  33.96345   149   %  5.3898
     842      18.93649     76.89020         95.82669  34.32766   150   %  5.3991
     848      18.93463     77.25728         96.19191  34.69288   151   %  5.4084
     855      18.92878     77.62226         96.55104  35.05201   152   %  5.4183
     862      18.92687     77.98708         96.91395  35.41492   153   %  5.4276
     868      18.92506     78.35389         97.27896  35.77993   154   %  5.4367
     875      18.92105     78.72054         97.64159  36.14256   155   %  5.4464
     882      18.91854     79.08731         98.00585  36.50682   156   %  5.4556
     888      18.91753     79.45214         98.36967  36.87064   157   %  5.4647
     895      18.91274     79.81998         98.73272  37.23369   158   %  5.4743
     902      18.91120     80.18558         99.09678  37.59776   159   %  5.4835
     908      18.91127     80.55473         99.46600  37.96697   160   %  5.4925
     915      18.90489     80.92443         99.82932  38.33029   161   %  5.5020
     922      18.90197     81.27865        100.18062  38.68159   162   %  5.5109
     928      18.89956     81.60804        100.50761  39.00858   163   %  5.5190
     935      18.90313     81.99522        100.89835  39.39932   164   %  5.5284
     942      18.89749     82.39802        101.29551  39.79649   165   %  5.5384
     948      18.89840     82.76600        101.66440  40.16538   166   %  5.5473
     955      18.89694     83.10009        101.99703  40.49800   167   %  5.5554
     962      18.88853     83.48616        102.37469  40.87566   168   %  5.5648
     968      18.89310     83.87522        102.76832  41.26929   169   %  5.5740
     975      18.89185     84.21080        103.10265  41.60362   170   %  5.5819
     982      18.88561     84.61971        103.50532  42.00629   171   %  5.5915
     988      18.88015     84.93587        103.81602  42.31699   172   %  5.5989
     995      18.88649     85.32837        104.21486  42.71583   173   %  5.6080
    1002      18.87538     85.72163        104.59701  43.09798   174   %  5.6170
    1008      18.87362     86.06626        104.93987  43.44084   175   %  5.6247
    1015      18.88293     86.46630        105.34922  43.85020   176   %  5.6339
    1022      18.86965     86.86002        105.72967  44.23064   177   %  5.6426
    1028      18.86773     87.20187        106.06960  44.57057   178   %  5.6502
    1035      18.87971     87.60781        106.48752  44.98849   179   %  5.6594
    1042      18.86336     88.01231        106.87567  45.37664   180   %  5.6680
    1048      18.86174     88.36453        107.22627  45.72724   181   %  5.6757
    1055      18.87781     88.78151        107.65932  46.16029   182   %  5.6850
    1062      18.85828     89.19045        108.04873  46.54970   183   %  5.6934
    1068      18.85658     89.54655        108.40312  46.90409   184   %  5.7009
    1075      18.87397     89.97318        108.84715  47.34812   185   %  5.7102
    1081      18.87443     90.33827        109.21269  47.71367   186   %  5.7177
    1088      18.85159     90.76463        109.61621  48.11719   187   %  5.7261
    1094      18.85018     91.14290        109.99308  48.49406   188   %  5.7336
    1101      18.87314     91.59726        110.47039  48.97137   189   %  5.7431
    1108      18.84705     92.04233        110.88938  49.39035   190   %  5.7513
    1114      18.84582     92.43853        111.28434  49.78531   191   %  5.7590
    1121      18.87185     92.91961        111.79146  50.29243   192   %  5.7687
    1127      18.87208     93.32281        112.19489  50.69586   193   %  5.7764
    1134      18.84203     93.80693        112.64896  51.14993   194   %  5.7847


 IRC CALCULATION COMPLETE 

 **********************
 *                    *
 * JOB ENDED NORMALLY *
 *                    *
 **********************



 TOTAL JOB TIME:             5.16 SECONDS

 == MOPAC DONE ==
