 *******************************************************************************
 ** Site#: 37037        For non-commercial use only           Version 21.158W **
 *******************************************************************************
 ** Cite this program as: MOPAC2016, Version: 21.158W, James J. P. Stewart,   **
 ** Stewart Computational Chemistry, web: HTTP://OpenMOPAC.net. Days left: 361**
 *******************************************************************************
 **                                                                           **
 **                                MOPAC2016                                  **
 **                                                                           **
 *******************************************************************************

                              PM7 CALCULATION RESULTS

 *******************************************************************************
 *  CALCULATION DONE:                                Fri Jun 11 08:14:27 2021  *
 *  SYMMETRY   - SYMMETRY CONDITIONS TO BE IMPOSED
 *
 *
 *
 *                 CHARGE ON SYSTEM = +1
 *
 *
 *
 *  EPS=78.4   - USE ANDREAS KLAMT'S COSMO IMPLICIT SOLVATION MODEL
 *  PRECISE    - TIGHTER CRITERIA TO BE USED
 *  T=         - A TIME OF 172800.0 SECONDS REQUESTED
 *  DUMP=N     - RESTART FILE WRITTEN EVERY 7200.0 SECONDS REQUESTED
 *******************************************************************************



                    PARAMETER DEPENDENCE DATA

        REFERENCE ATOM      FUNCTION NO.    DEPENDENT ATOM(S)
            2                  1               3

             DESCRIPTIONS OF THE FUNCTIONS USED
   1      BOND LENGTH    IS SET EQUAL TO THE REFERENCE BOND LENGTH   
 
 symmetry eps=78.4 charge=1 precise
 [NH4](+) + NH3 <=> NH3 + [NH4](+)

  ATOM    CHEMICAL      BOND LENGTH      BOND ANGLE     TWIST ANGLE 
 NUMBER    SYMBOL       (ANGSTROMS)      (DEGREES)       (DEGREES) 
   (I)                     NA:I           NB:NA:I       NC:NB:NA:I       NA    NB    NC 
     1       H          0.00000000       0.0000000       0.0000000        0     0     0
     2       N          1.52935199  *    0.0000000  *    0.0000000  *     1     0     0
     3       N          1.52935199     111.2204676  *    0.0000000  *     1     2     0
     4       H          1.09534441  *  111.2971548  *  180.0000000  *     2     1     3
     5       H          1.09534441  *  111.2971548  *  180.0000000  *     3     1     2
     6       H          1.09525991  *  111.3978555  *  -59.9798968  *     2     1     3
     7       H          1.09525991  *  111.3978555  *   59.9798968  *     2     1     3
     8       H          1.09525991  *  111.3978555  *   59.9798968  *     3     1     2
     9       H          1.09525991  *  111.3978555  *  -59.9798968  *     3     1     2
 


          CARTESIAN COORDINATES 

    NO.       ATOM           X           Y           Z

     1         H          0.0000      0.0000      0.0000
     2         N          1.5294      0.0000      0.0000
     3         N         -0.5536      1.4257      0.0000
     4         H          1.9272     -1.0205      0.0000
     5         H         -1.6489      1.4271     -0.0000
     6         H          1.9289      0.5102     -0.8830
     7         H          1.9289      0.5102      0.8830
     8         H         -0.2226      1.9828     -0.8830
     9         H         -0.2226      1.9828      0.8830

 General Reference for PM7:
 "Optimization of Parameters for Semiempirical Methods VI: More Modifications to the 
 NDDO Approximations and Re-optimization of Parameters", J. J. P. Stewart, J. Mol. Mod., 1:32, 19 (2013)
 https://link.springer.com/article/10.1007/s00894-012-1667-x

           Empirical Formula: H7 N2  =     9 atoms



      MOLECULAR POINT GROUP   :   C2v 


      RHF CALCULATION, NO. OF DOUBLY OCCUPIED LEVELS = 8


          Geometry optimization using EF

          DIAGONAL MATRIX USED AS START HESSIAN

 CYCLE:     1 TIME:   0.031 TIME LEFT:  2.00D  GRAD.:   143.009 HEAT:  97.87136
 CYCLE:     2 TIME:   0.016 TIME LEFT:  2.00D  GRAD.:    70.600 HEAT:  82.24615
 CYCLE:     3 TIME:   0.016 TIME LEFT:  2.00D  GRAD.:    55.259 HEAT:  76.20586
 CYCLE:     4 TIME:   0.016 TIME LEFT:  2.00D  GRAD.:    39.324 HEAT:  73.07045
 CYCLE:     5 TIME:   0.016 TIME LEFT:  2.00D  GRAD.:    29.325 HEAT:  67.02683
 CYCLE:     6 TIME:   0.000 TIME LEFT:  2.00D  GRAD.:    14.582 HEAT:  62.99066
 CYCLE:     7 TIME:   0.016 TIME LEFT:  2.00D  GRAD.:    18.301 HEAT:  62.29291
 CYCLE:     8 TIME:   0.000 TIME LEFT:  2.00D  GRAD.:    13.532 HEAT:  61.89588
 CYCLE:     9 TIME:   0.016 TIME LEFT:  2.00D  GRAD.:     3.140 HEAT:  61.70616
 CYCLE:    10 TIME:   0.031 TIME LEFT:  2.00D  GRAD.:     0.292 HEAT:  61.67952
 CYCLE:    11 TIME:   0.000 TIME LEFT:  2.00D  GRAD.:     0.198 HEAT:  61.67792
 CYCLE:    12 TIME:   0.016 TIME LEFT:  2.00D  GRAD.:     0.212 HEAT:  61.67645
 CYCLE:    13 TIME:   0.016 TIME LEFT:  2.00D  GRAD.:     0.225 HEAT:  61.67918
 CYCLE:    14 TIME:   0.000 TIME LEFT:  2.00D  GRAD.:     0.286 HEAT:  61.68481
 CYCLE:    15 TIME:   0.016 TIME LEFT:  2.00D  GRAD.:     0.172 HEAT:  61.68605
 CYCLE:    16 TIME:   0.016 TIME LEFT:  2.00D  GRAD.:     0.181 HEAT:  61.66993
 CYCLE:    17 TIME:   0.000 TIME LEFT:  2.00D  GRAD.:     0.107 HEAT:  61.67170
 CYCLE:    18 TIME:   0.016 TIME LEFT:  2.00D  GRAD.:     0.121 HEAT:  61.66298
 CYCLE:    19 TIME:   0.000 TIME LEFT:  2.00D  GRAD.:     0.117 HEAT:  61.66922
 CYCLE:    20 TIME:   0.016 TIME LEFT:  2.00D  GRAD.:     0.663 HEAT:  61.65794
 CYCLE:    21 TIME:   0.016 TIME LEFT:  2.00D  GRAD.:     0.273 HEAT:  61.65435
 CYCLE:    22 TIME:   0.031 TIME LEFT:  2.00D  GRAD.:     0.130 HEAT:  61.65628
 CYCLE:    23 TIME:   0.047 TIME LEFT:  2.00D  GRAD.:     0.112 HEAT:  61.65627

     TRUST RADIUS NOW LESS THAN  0.00010 OPTIMIZATION TERMINATING
      THE GEOMETRY MAY NOT BE COMPLETELY OPTIMIZED
      (TO CONTINUE, ADD 'LET DDMIN=0.0' TO THE KEYWORD LINE)

 -------------------------------------------------------------------------------
 symmetry eps=78.4 charge=1 precise
 [NH4](+) + NH3 <=> NH3 + [NH4](+)



     GEOMETRY OPTIMISED USING EIGENVECTOR FOLLOWING (EF).     
     SCF FIELD WAS ACHIEVED                                   


                              PM7 CALCULATION
                                                       MOPAC2016 (Version: 21.158W)
                                                       Fri Jun 11 08:14:27 2021
                                                       No. of days remaining = 361




          FINAL HEAT OF FORMATION =         61.65435 KCAL/MOL =     257.96181 KJ/MOL
          VAN DER WAALS AREA      =         82.71 SQUARE ANGSTROMS


          TOTAL ENERGY            =       -463.59365 EV
          ELECTRONIC ENERGY       =       -410.38403 EV  POINT GROUP:     D3h 
          CORE-CORE REPULSION     =        -53.20962 EV

          DIELECTRIC ENERGY       =         -2.81495 EV
          COSMO AREA              =         82.71 SQUARE ANGSTROMS
          COSMO VOLUME            =         59.43 CUBIC ANGSTROMS

          GRADIENT NORM           =          0.27310 = 0.09103 PER ATOM
          IONIZATION POTENTIAL    =         11.337954 EV
          HOMO LUMO ENERGIES (EV) =        -11.338  3.153
          NO. OF FILLED LEVELS    =          8
          MOLECULAR WEIGHT        =         35.0687

          MOLECULAR DIMENSIONS (Angstroms)

            Atom       Atom       Distance
            H     8    H     7     3.70821
            H     6    H     9     2.94538
            H     6    H     5     1.42368


          SCF CALCULATIONS        =         38
 
          WALL-CLOCK TIME         =          0.422 SECONDS
          COMPUTATION TIME        =          0.422 SECONDS




  ATOM    CHEMICAL      BOND LENGTH      BOND ANGLE     TWIST ANGLE 
 NUMBER    SYMBOL       (ANGSTROMS)      (DEGREES)       (DEGREES) 
   (I)                     NA:I           NB:NA:I       NC:NB:NA:I       NA    NB    NC 
     1       H          0.00000000       0.0000000       0.0000000        0     0     0
     2       N          1.31021237  *   -0.0000000  *   -0.0000000  *     1     0     0
     3       N          1.31021237     180.0428239  *    0.0000000  *     1     2     0
     4       H          1.01165009  *  110.1419960  * -179.9956712  *     2     1     3
     5       H          1.01121816  *  110.2874583  * -179.7976115  *     3     1     2
     6       H          1.01124313  *  110.3848691  *  -60.1482622  *     2     1     3
     7       H          1.01145205  *  110.3986040  *   60.0184976  *     2     1     3
     8       H          1.01169294  *  110.2938803  *   60.2181990  *     3     1     2
     9       H          1.01117896  *  110.3004762  *  -59.7954241  *     3     1     2

                             CARTESIAN COORDINATES

   1    H        0.000000000     0.000000000     0.000000000
   2    N        1.310212372     0.000000000     0.000000000
   3    N       -1.310212006    -0.000979276     0.000000000
   4    H        1.658571986     0.949779703     0.000071758
   5    H       -1.661540841     0.947239575    -0.003350378
   6    H        1.662453143    -0.471830673     0.822140454
   7    H        1.662753185    -0.473747107    -0.821166187
   8    H       -1.660750640    -0.472554999     0.823566392
   9    H       -1.660677216    -0.478356163    -0.819614747


           Empirical Formula: H7 N2  =     9 atoms



      MOLECULAR POINT GROUP   :   D3h 


                  EIGENVALUES  
 -37.83772 -36.00493 -16.92957 -16.92458 -16.69762 -16.69286 -16.62233 -11.33795
   3.15276   4.39128   6.10007   6.21131   6.21433   6.21811   6.22765


              NET ATOMIC CHARGES AND DIPOLE CONTRIBUTIONS

  ATOM NO.   TYPE          CHARGE      No. of ELECS.   s-Pop       p-Pop       
    1          H           0.382023        0.6180     0.61798
    2          N          -0.539175        5.5392     1.54854     3.99064
    3          N          -0.538900        5.5389     1.54843     3.99047
    4          H           0.283232        0.7168     0.71677
    5          H           0.282308        0.7177     0.71769
    6          H           0.281712        0.7183     0.71829
    7          H           0.283327        0.7167     0.71667
    8          H           0.283350        0.7166     0.71665
    9          H           0.282123        0.7179     0.71788
 DIPOLE           X         Y         Z       TOTAL
 POINT-CHG.     0.003     0.006     0.000     0.007
 HYBRID        -0.000     0.002     0.001     0.002
 SUM            0.003     0.008     0.001     0.009


          ATOMIC ORBITAL ELECTRON POPULATIONS

     Atom    s        px        py        pz   
    1  H   0.61798
    2  N   1.54854   1.50215   1.24471   1.24378
    3  N   1.54843   1.50253   1.24391   1.24403
    4  H   0.71677
    5  H   0.71769
    6  H   0.71829
    7  H   0.71667
    8  H   0.71665
    9  H   0.71788
 *******************************************************************************
 ** Site#: 37037        For non-commercial use only           Version 21.158W **
 *******************************************************************************
 ** Cite this program as: MOPAC2016, Version: 21.158W, James J. P. Stewart,   **
 ** Stewart Computational Chemistry, web: HTTP://OpenMOPAC.net. Days left: 361**
 *******************************************************************************
 **                                                                           **
 **                                MOPAC2016                                  **
 **                                                                           **
 *******************************************************************************

                              PM7 CALCULATION RESULTS

 *******************************************************************************
 *  CALCULATION DONE:                                Fri Jun 11 08:14:27 2021  *
 *
 *
 *
 *                 CHARGE ON SYSTEM = +1
 *
 *
 *
 *  EPS=78.4   - USE ANDREAS KLAMT'S COSMO IMPLICIT SOLVATION MODEL
 *  OLDGEO     - PREVIOUS GEOMETRY TO BE USED
 *  FORCE      - FORCE CALCULATION SPECIFIED
 *  T=         - A TIME OF 172800.0 SECONDS REQUESTED
 *  DUMP=N     - RESTART FILE WRITTEN EVERY 7200.0 SECONDS REQUESTED
 *  ISOTOPE    - SAVE THE FORCE MATRIX FOR USE LATER
 *******************************************************************************
oldgeo force eps=78.4 charge=1 isotope
 [NH4](+) + NH3 <=> NH3 + [NH4](+)

  ATOM    CHEMICAL      BOND LENGTH      BOND ANGLE     TWIST ANGLE 
 NUMBER    SYMBOL       (ANGSTROMS)      (DEGREES)       (DEGREES) 
   (I)                     NA:I           NB:NA:I       NC:NB:NA:I       NA    NB    NC 
     1       H          0.00000000       0.0000000       0.0000000        0     0     0
     2       N          1.31021237  *   -0.0000000  *   -0.0000000  *     1     0     0
     3       N          1.31021237     180.0428239  *    0.0000000  *     1     2     0
     4       H          1.01165009  *  110.1419960  * -179.9956712  *     2     1     3
     5       H          1.01121816  *  110.2874583  * -179.7976115  *     3     1     2
     6       H          1.01124313  *  110.3848691  *  -60.1482622  *     2     1     3
     7       H          1.01145205  *  110.3986040  *   60.0184976  *     2     1     3
     8       H          1.01169294  *  110.2938803  *   60.2181990  *     3     1     2
     9       H          1.01117896  *  110.3004762  *  -59.7954241  *     3     1     2
 


          CARTESIAN COORDINATES 

    NO.       ATOM           X           Y           Z

     1         H          0.0000      0.0000      0.0000
     2         N          1.3102      0.0000      0.0000
     3         N         -1.3102     -0.0010      0.0000
     4         H          1.6586      0.9498      0.0001
     5         H         -1.6615      0.9472     -0.0034
     6         H          1.6625     -0.4718      0.8221
     7         H          1.6628     -0.4737     -0.8212
     8         H         -1.6608     -0.4726      0.8236
     9         H         -1.6607     -0.4784     -0.8196

 General Reference for PM7:
 "Optimization of Parameters for Semiempirical Methods VI: More Modifications to the 
 NDDO Approximations and Re-optimization of Parameters", J. J. P. Stewart, J. Mol. Mod., 1:32, 19 (2013)
 https://link.springer.com/article/10.1007/s00894-012-1667-x

           Empirical Formula: H7 N2  =     9 atoms



      MOLECULAR POINT GROUP   :   D3h 


      RHF CALCULATION, NO. OF DOUBLY OCCUPIED LEVELS = 8



          HEAT OF FORMATION =      61.654351 KCALS/MOLE


          CARTESIAN COORDINATE DERIVATIVES

   NUMBER  ATOM         X            Y            Z

     1       H     -0.081226    -0.136759    -0.000083
     2       N      0.186736     0.254606     0.195830
     3       N     -0.082519    -0.084826     0.050033
     4       H     -0.062385    -0.007310    -0.070746
     5       H      0.051124     0.048709    -0.002166
     6       H      0.049945    -0.095723    -0.117784
     7       H     -0.054167    -0.000830    -0.006179
     8       H     -0.036644     0.054287    -0.018560
     9       H      0.029106    -0.031973    -0.030172
 


          GRADIENT NORM =   0.47928


          TIME FOR SCF CALCULATION =    0.02

          TIME FOR DERIVATIVES     =    0.00

          MOLECULAR WEIGHT =   35.07



          ROTATIONAL CONSTANTS IN CM(-1)

          A =    3.09800054   B =    0.24975873   C =    0.24974943



           PRINCIPAL MOMENTS OF INERTIA IN UNITS OF 10**(-40)*GRAM-CM**2

          A =        9.0358   B =      112.0793   C =      112.0834


          ORIENTATION OF MOLECULE IN FORCE CALCULATION

    NO.       ATOM         X         Y         Z

     1          H      -0.0000   -0.0004    0.0000
     2          N       1.3102   -0.0004    0.0000
     3          N      -1.3102    0.0006    0.0000
     4          H       1.6585   -0.9502   -0.0000
     5          H      -1.6616   -0.9476    0.0034
     6          H       1.6624    0.4715   -0.8221
     7          H       1.6627    0.4734    0.8212
     8          H      -1.6608    0.4722   -0.8235
     9          H      -1.6607    0.4780    0.8197


    FIRST DERIVATIVES WILL BE USED IN THE CALCULATION OF SECOND DERIVATIVES

          ESTIMATED TIME TO COMPLETE CALCULATION =        0.84 SECONDS

    FOR POINT-GROUP D3h  THERE ARE  12 UNIQUE SYMMETRY FUNCTIONS.

 STEP:   1 TIME =     0.03 SECS, INTEGRAL =      0.03 TIME LEFT: 172799.95
 STEP:   2 TIME =     0.02 SECS, INTEGRAL =      0.05 TIME LEFT: 172799.94
 STEP:   3 TIME =     0.02 SECS, INTEGRAL =      0.06 TIME LEFT: 172799.92
 STEP:   4 TIME =     0.02 SECS, INTEGRAL =      0.08 TIME LEFT: 172799.91
 STEP:   5 TIME =     0.02 SECS, INTEGRAL =      0.09 TIME LEFT: 172799.89
 STEP:   6 TIME =     0.02 SECS, INTEGRAL =      0.11 TIME LEFT: 172799.88
 STEP:   7                       INTEGRAL =      0.11 TIME LEFT: 172799.88
 STEP:   8                       INTEGRAL =      0.11 TIME LEFT: 172799.88
 STEP:   9                       INTEGRAL =      0.11 TIME LEFT: 172799.88
 STEP:  10 TIME =     0.02 SECS, INTEGRAL =      0.12 TIME LEFT: 172799.86
 STEP:  11 TIME =     0.03 SECS, INTEGRAL =      0.16 TIME LEFT: 172799.83
 STEP:  12 TIME =     0.02 SECS, INTEGRAL =      0.17 TIME LEFT: 172799.81
 STEP:  13                       INTEGRAL =      0.17 TIME LEFT: 172799.81
 STEP:  14                       INTEGRAL =      0.17 TIME LEFT: 172799.81
 STEP:  15                       INTEGRAL =      0.17 TIME LEFT: 172799.81
 STEP:  16                       INTEGRAL =      0.17 TIME LEFT: 172799.81
 STEP:  17                       INTEGRAL =      0.17 TIME LEFT: 172799.81
 STEP:  18                       INTEGRAL =      0.17 TIME LEFT: 172799.81
 STEP:  19                       INTEGRAL =      0.17 TIME LEFT: 172799.81
 STEP:  20                       INTEGRAL =      0.17 TIME LEFT: 172799.81
 STEP:  21                       INTEGRAL =      0.17 TIME LEFT: 172799.81
 STEP:  22                       INTEGRAL =      0.17 TIME LEFT: 172799.81
 STEP:  23                       INTEGRAL =      0.17 TIME LEFT: 172799.81
 STEP:  24                       INTEGRAL =      0.17 TIME LEFT: 172799.81
 STEP:  25                       INTEGRAL =      0.17 TIME LEFT: 172799.81
 STEP:  26                       INTEGRAL =      0.17 TIME LEFT: 172799.81
 STEP:  27                       INTEGRAL =      0.17 TIME LEFT: 172799.81

(To convert to Hartree/Bohr^2, multiply by (10^(-21) x N x a0^2)/(4.184 x 627.51) =  0.0642)


           FORCE MATRIX IN MILLIDYNES/ANGSTROM


                  H  1       N  2       N  3       H  4       H  5       H  6
 ------------------------------------------------------------------------------
     H    1   1.425978
     N    2   0.780645  10.294941
     N    3   0.705739   1.244347  10.294941
     H    4   0.287731   3.807604   0.066042   4.347786
     H    5   0.265297   0.081578   3.743178   0.062236   4.347786
     H    6   0.275765   3.745425   0.118698   0.670869   0.007466   4.347786
     H    7   0.287296   3.825838   0.074910   0.614809   0.027013   0.670869
     H    8   0.268133   0.074910   3.825838   0.027013   0.614809   0.062236
     H    9   0.257235   0.118698   3.745425   0.007466   0.670869   0.027013


                  H  7       H  8       H  9
 ------------------------------------------
     H    7   4.347786
     H    8   0.007466   4.347786
     H    9   0.062236   0.670869   4.347786


          HEAT OF FORMATION =      61.654351 KCALS/MOLE

          ZERO POINT ENERGY      44.584 KCAL/MOL

         NOTE: SYSTEM IS NOT A GROUND STATE, THEREFORE ZERO POINT
         ENERGY IS NOT MEANINGFULL. ZERO POINT ENERGY PRINTED
         DOES NOT INCLUDE THE  1 IMAGINARY FREQUENCIES


           NORMAL COORDINATE ANALYSIS (Total motion = 1 Angstrom)


   Root No.       1         2         3         4         5         6         7         8

                 1 A2"     1 E'      1 E'      1 A1"     1 A1'     1 E"      1 E"      2 E'  

               -1108.5     322.4     322.4     336.6     549.7     644.9     644.9    1380.5
  
           1    0.7449   -0.0001   -0.0000   -0.0000    0.0000    0.0000   -0.0000   -0.0000
           2   -0.0003   -0.1738   -0.0134   -0.0000   -0.0000    0.0000    0.0000   -0.0858
           3   -0.0000   -0.0131    0.1778   -0.0000    0.0000    0.0000   -0.0000    0.4317
           4   -0.0202   -0.0000   -0.0000   -0.0000   -0.1241   -0.0000    0.0000    0.0000
           5    0.0000   -0.0067   -0.0005   -0.0000    0.0001   -0.0303    0.0124    0.0049
           6    0.0000   -0.0005    0.0068    0.0000    0.0000    0.0128    0.0293   -0.0244
           7   -0.0202   -0.0000   -0.0000    0.0000    0.1241    0.0000   -0.0000    0.0000
           8    0.0000   -0.0067   -0.0005    0.0000   -0.0001    0.0303   -0.0124    0.0048
           9   -0.0000   -0.0005    0.0068   -0.0000   -0.0000   -0.0128   -0.0293   -0.0244
          10   -0.0307    0.1801    0.0142    0.0000   -0.1253    0.2092   -0.0850   -0.0207
          11   -0.0184    0.0611    0.0047    0.0003   -0.0010    0.0512   -0.0209   -0.0051
          12    0.0000    0.0044   -0.0597    0.1667    0.0000   -0.0212   -0.0488    0.0565
          13   -0.0307   -0.1800   -0.0142   -0.0000    0.1253    0.2092   -0.0850    0.0207
          14    0.0184    0.0612    0.0047   -0.0003   -0.0011   -0.0514    0.0210   -0.0051
          15   -0.0001    0.0044   -0.0597   -0.1667    0.0000    0.0213    0.0489    0.0565
          16   -0.0307   -0.0780   -0.1666   -0.0001   -0.1253   -0.1806   -0.1330    0.0999
          17    0.0092    0.0590    0.0058   -0.1445    0.0006    0.0509   -0.0203    0.0035
          18   -0.0160    0.0033   -0.0620   -0.0831   -0.0009   -0.0219   -0.0494    0.0309
          19   -0.0307   -0.1020    0.1525    0.0001   -0.1253   -0.0286    0.2180   -0.0792
          20    0.0092    0.0592    0.0033    0.1442    0.0006    0.0506   -0.0211   -0.0230
          21    0.0159    0.0057   -0.0618   -0.0836    0.0009   -0.0212   -0.0497    0.0363
          22   -0.0307    0.0780    0.1667    0.0001    0.1253   -0.1806   -0.1330   -0.0999
          23   -0.0091    0.0590    0.0057    0.1445    0.0005   -0.0508    0.0204    0.0036
          24    0.0160    0.0034   -0.0620    0.0831   -0.0009    0.0219    0.0493    0.0309
          25   -0.0307    0.1021   -0.1524   -0.0001    0.1253   -0.0286    0.2180    0.0791
          26   -0.0092    0.0592    0.0035   -0.1442    0.0005   -0.0505    0.0210   -0.0231
          27   -0.0159    0.0057   -0.0618    0.0836    0.0009    0.0212    0.0496    0.0363


   Root No.       9        10        11        12        13        14        15        16

                 2 E'      2 A2"     2 A1'     3 E'      3 E'      2 E"      2 E"      4 E'  

                1380.5    1387.2    1414.2    1593.4    1593.4    1595.2    1595.2    2708.9
  
           1    0.0002    0.0188    0.0000   -0.0000   -0.0000    0.0000   -0.0000    0.0000
           2    0.4311   -0.0000    0.0000   -0.0301   -0.0366   -0.0000   -0.0000    0.0055
           3    0.0857    0.0000   -0.0000   -0.0370    0.0298   -0.0000   -0.0000   -0.0086
           4   -0.0000   -0.0321   -0.0322   -0.0000   -0.0000    0.0000   -0.0000    0.0000
           5   -0.0244    0.0000    0.0000   -0.0110   -0.0135    0.0208   -0.0012    0.0118
           6   -0.0049   -0.0000   -0.0000   -0.0136    0.0109   -0.0012   -0.0204   -0.0185
           7   -0.0000   -0.0321    0.0322   -0.0000   -0.0000   -0.0000    0.0000    0.0000
           8   -0.0244    0.0000   -0.0000   -0.0110   -0.0134   -0.0209    0.0012    0.0118
           9   -0.0048    0.0000    0.0000   -0.0136    0.0109    0.0012    0.0204   -0.0185
          10    0.1032    0.1454    0.1474   -0.0495   -0.0605    0.0749   -0.0042    0.0437
          11    0.0258    0.0472    0.0507   -0.0195   -0.0244    0.0296   -0.0012   -0.1194
          12    0.0113   -0.0000   -0.0001    0.1626   -0.1305    0.0127    0.2201   -0.0125
          13   -0.1032    0.1453   -0.1474    0.0494    0.0605    0.0750   -0.0041   -0.0438
          14    0.0259   -0.0473    0.0509   -0.0195   -0.0244   -0.0297    0.0012   -0.1195
          15    0.0113    0.0002   -0.0001    0.1628   -0.1304   -0.0125   -0.2201   -0.0125
          16   -0.0337    0.1454    0.1474   -0.0280    0.0727   -0.0412   -0.0614   -0.0812
          17    0.0515   -0.0237   -0.0254    0.1751    0.0499   -0.1550    0.1170   -0.1097
          18    0.0199    0.0409    0.0441    0.0877    0.0623   -0.1079    0.0392    0.1924
          19   -0.0695    0.1454    0.1474    0.0776   -0.0121   -0.0338    0.0656    0.0374
          20    0.0461   -0.0237   -0.0256    0.0128    0.1797   -0.1670   -0.0990    0.0626
          21   -0.0066   -0.0409   -0.0439   -0.0433   -0.0986    0.1123    0.0274    0.0817
          22    0.0337    0.1454   -0.1474    0.0283   -0.0726   -0.0410   -0.0615    0.0810
          23    0.0515    0.0234   -0.0252    0.1750    0.0500    0.1552   -0.1166   -0.1097
          24    0.0199   -0.0410    0.0441    0.0876    0.0622    0.1080   -0.0390    0.1923
          25    0.0696    0.1454   -0.1474   -0.0776    0.0122   -0.0338    0.0656   -0.0373
          26    0.0461    0.0237   -0.0254    0.0127    0.1796    0.1672    0.0989    0.0625
          27   -0.0066    0.0408   -0.0439   -0.0432   -0.0985   -0.1124   -0.0274    0.0815


   Root No.      17        18        19        20        21

                 4 E'      3 E"      3 E"      3 A1'     3 A2" 

                2708.9    2711.8    2711.8    2784.6    2800.1
  
           1   -0.0000    0.0000   -0.0000   -0.0000    0.0189
           2   -0.0094    0.0000   -0.0000   -0.0000   -0.0000
           3   -0.0060   -0.0000    0.0000   -0.0000   -0.0000
           4   -0.0000   -0.0000   -0.0000    0.0094    0.0084
           5   -0.0204   -0.0017   -0.0221    0.0000    0.0000
           6   -0.0130    0.0241   -0.0015    0.0000    0.0000
           7   -0.0000    0.0000    0.0000   -0.0094    0.0084
           8   -0.0204    0.0017    0.0221   -0.0000   -0.0000
           9   -0.0130   -0.0241    0.0015   -0.0000   -0.0000
          10   -0.0752   -0.0062   -0.0806   -0.0446   -0.0421
          11    0.2056    0.0173    0.2240    0.1573    0.1551
          12   -0.0092    0.0179   -0.0015   -0.0003   -0.0000
          13    0.0754   -0.0063   -0.0807    0.0447   -0.0423
          14    0.2055   -0.0174   -0.2239    0.1573   -0.1551
          15   -0.0093   -0.0178    0.0016   -0.0003    0.0005
          16   -0.0041    0.0793    0.0354   -0.0447   -0.0422
          17   -0.0198    0.1164    0.0362   -0.0783   -0.0775
          18    0.0014   -0.1870   -0.0926    0.1364    0.1343
          19    0.0794   -0.0731    0.0453   -0.0447   -0.0422
          20    0.1021   -0.1103    0.0513   -0.0789   -0.0775
          21    0.1912   -0.1706    0.1155   -0.1360   -0.1343
          22    0.0041    0.0793    0.0354    0.0446   -0.0422
          23   -0.0198   -0.1167   -0.0362   -0.0784    0.0771
          24    0.0014    0.1871    0.0925    0.1364   -0.1345
          25   -0.0793   -0.0731    0.0453    0.0446   -0.0422
          26    0.1021    0.1106   -0.0513   -0.0790    0.0780
          27    0.1913    0.1706   -0.1156   -0.1361    0.1340


           MASS-WEIGHTED COORDINATE ANALYSIS (NORMAL COORDINATES)


   Root No.       1         2         3         4         5         6         7         8

                 1 A2"     1 E'      1 E'      1 A1"     1 A1'     1 E"      1 E"      2 E'  

               -1108.5     322.4     322.4     336.6     549.7     644.9     644.9    1380.5
  
           1    0.9833   -0.0002   -0.0000   -0.0000    0.0000    0.0000   -0.0000   -0.0001
           2   -0.0004   -0.4472   -0.0335   -0.0000   -0.0000    0.0000    0.0000   -0.1695
           3   -0.0000   -0.0335    0.4472   -0.0000    0.0000    0.0000   -0.0000    0.8526
           4   -0.0993   -0.0000   -0.0000   -0.0000   -0.6402   -0.0001    0.0000    0.0000
           5    0.0000   -0.0638   -0.0049   -0.0000    0.0003   -0.2506    0.1057    0.0358
           6    0.0000   -0.0049    0.0638    0.0001    0.0000    0.1057    0.2506   -0.1798
           7   -0.0993   -0.0000   -0.0000    0.0000    0.6402    0.0001   -0.0000    0.0000
           8    0.0001   -0.0638   -0.0047    0.0000   -0.0003    0.2506   -0.1057    0.0357
           9   -0.0000   -0.0046    0.0638   -0.0001   -0.0000   -0.1057   -0.2506   -0.1799
          10   -0.0405    0.4634    0.0355    0.0000   -0.1733    0.4648   -0.1949   -0.0410
          11   -0.0243    0.1571    0.0117    0.0007   -0.0014    0.1138   -0.0479   -0.0100
          12    0.0000    0.0112   -0.1503    0.4083    0.0000   -0.0472   -0.1120    0.1115
          13   -0.0405   -0.4633   -0.0356   -0.0000    0.1734    0.4647   -0.1949    0.0410
          14    0.0243    0.1575    0.0119   -0.0007   -0.0016   -0.1142    0.0481   -0.0101
          15   -0.0001    0.0114   -0.1503   -0.4083    0.0000    0.0473    0.1122    0.1115
          16   -0.0405   -0.2008   -0.4190   -0.0001   -0.1733   -0.4011   -0.3050    0.1973
          17    0.0122    0.1519    0.0145   -0.3539    0.0008    0.1130   -0.0466    0.0070
          18   -0.0211    0.0086   -0.1558   -0.2035   -0.0013   -0.0487   -0.1132    0.0610
          19   -0.0405   -0.2624    0.3835    0.0001   -0.1733   -0.0635    0.4999   -0.1563
          20    0.0122    0.1525    0.0082    0.3532    0.0008    0.1123   -0.0484   -0.0455
          21    0.0211    0.0146   -0.1554   -0.2047    0.0013   -0.0470   -0.1139    0.0716
          22   -0.0405    0.2009    0.4191    0.0002    0.1733   -0.4012   -0.3050   -0.1973
          23   -0.0121    0.1517    0.0142    0.3539    0.0007   -0.1128    0.0467    0.0071
          24    0.0211    0.0087   -0.1558    0.2035   -0.0013    0.0486    0.1131    0.0610
          25   -0.0405    0.2626   -0.3835   -0.0002    0.1733   -0.0636    0.4999    0.1563
          26   -0.0122    0.1522    0.0086   -0.3532    0.0007   -0.1122    0.0481   -0.0456
          27   -0.0210    0.0147   -0.1554    0.2047    0.0013    0.0470    0.1138    0.0716


   Root No.       9        10        11        12        13        14        15        16

                 2 E'      2 A2"     2 A1'     3 E'      3 E'      2 E"      2 E"      4 E'  

                1380.5    1387.2    1414.2    1593.4    1593.4    1595.2    1595.2    2708.9
  
           1    0.0004    0.0457    0.0000   -0.0000   -0.0000    0.0000   -0.0000    0.0000
           2    0.8526   -0.0000    0.0000   -0.0743   -0.0914   -0.0001   -0.0000    0.0128
           3    0.1695    0.0000   -0.0000   -0.0914    0.0743   -0.0000   -0.0000   -0.0201
           4   -0.0001   -0.2906   -0.2873   -0.0000   -0.0001    0.0001   -0.0000    0.0000
           5   -0.1798    0.0001    0.0001   -0.1018   -0.1251    0.1813   -0.0106    0.1031
           6   -0.0358   -0.0000   -0.0000   -0.1249    0.1017   -0.0105   -0.1813   -0.1622
           7   -0.0001   -0.2906    0.2873   -0.0000   -0.0001   -0.0001    0.0000    0.0000
           8   -0.1798    0.0002   -0.0001   -0.1015   -0.1250   -0.1815    0.0104    0.1033
           9   -0.0357    0.0000    0.0000   -0.1253    0.1016    0.0105    0.1812   -0.1618
          10    0.2042    0.3535    0.3527   -0.1223   -0.1510    0.1748   -0.0099    0.1025
          11    0.0510    0.1147    0.1214   -0.0481   -0.0609    0.0691   -0.0030   -0.2805
          12    0.0223   -0.0001   -0.0003    0.4019   -0.3255    0.0295    0.5245   -0.0294
          13   -0.2041    0.3534   -0.3526    0.1221    0.1508    0.1749   -0.0098   -0.1029
          14    0.0512   -0.1150    0.1217   -0.0481   -0.0609   -0.0693    0.0029   -0.2806
          15    0.0223    0.0004   -0.0003    0.4024   -0.3254   -0.0292   -0.5244   -0.0293
          16   -0.0666    0.3535    0.3526   -0.0693    0.1814   -0.0961   -0.1464   -0.1906
          17    0.1018   -0.0576   -0.0607    0.4327    0.1246   -0.3618    0.2787   -0.2577
          18    0.0393    0.0995    0.1054    0.2168    0.1553   -0.2518    0.0934    0.4518
          19   -0.1375    0.3535    0.3527    0.1917   -0.0302   -0.0790    0.1563    0.0879
          20    0.0913   -0.0577   -0.0612    0.0317    0.4483   -0.3898   -0.2359    0.1470
          21   -0.0131   -0.0995   -0.1051   -0.1070   -0.2459    0.2620    0.0653    0.1919
          22    0.0666    0.3535   -0.3527    0.0699   -0.1812   -0.0958   -0.1466    0.1903
          23    0.1018    0.0570   -0.0604    0.4326    0.1246    0.3623   -0.2779   -0.2576
          24    0.0393   -0.0997    0.1054    0.2165    0.1552    0.2520   -0.0930    0.4516
          25    0.1376    0.3535   -0.3527   -0.1918    0.0306   -0.0788    0.1563   -0.0875
          26    0.0911    0.0576   -0.0608    0.0313    0.4481    0.3902    0.2356    0.1469
          27   -0.0131    0.0993   -0.1051   -0.1067   -0.2458   -0.2623   -0.0653    0.1915


   Root No.      17        18        19        20        21

                 4 E'      3 E"      3 E"      3 A1'     3 A2" 

                2708.9    2711.8    2711.8    2784.6    2800.1
  
           1   -0.0000    0.0000   -0.0000   -0.0000    0.0477
           2   -0.0201    0.0000   -0.0000   -0.0000   -0.0000
           3   -0.0128   -0.0000    0.0000   -0.0000   -0.0000
           4   -0.0001   -0.0000   -0.0001    0.0871    0.0792
           5   -0.1620   -0.0132   -0.1914    0.0001    0.0001
           6   -0.1032    0.1914   -0.0132    0.0000    0.0000
           7   -0.0001    0.0000    0.0001   -0.0872    0.0792
           8   -0.1621    0.0133    0.1914   -0.0001   -0.0001
           9   -0.1032   -0.1916    0.0132   -0.0000   -0.0000
          10   -0.1604   -0.0132   -0.1872   -0.1104   -0.1062
          11    0.4385    0.0367    0.5205    0.3898    0.3911
          12   -0.0197    0.0382   -0.0035   -0.0008   -0.0001
          13    0.1608   -0.0133   -0.1876    0.1108   -0.1066
          14    0.4384   -0.0370   -0.5201    0.3896   -0.3910
          15   -0.0197   -0.0378    0.0037   -0.0009    0.0013
          16   -0.0087    0.1689    0.0823   -0.1107   -0.1065
          17   -0.0422    0.2479    0.0840   -0.1940   -0.1953
          18    0.0030   -0.3981   -0.2151    0.3379    0.3387
          19    0.1693   -0.1557    0.1052   -0.1107   -0.1065
          20    0.2177   -0.2349    0.1192   -0.1955   -0.1955
          21    0.4079   -0.3632    0.2684   -0.3371   -0.3385
          22    0.0086    0.1689    0.0821    0.1106   -0.1063
          23   -0.0422   -0.2486   -0.0841   -0.1942    0.1944
          24    0.0030    0.3983    0.2148    0.3380   -0.3392
          25   -0.1692   -0.1556    0.1051    0.1105   -0.1063
          26    0.2179    0.2355   -0.1191   -0.1957    0.1966
          27    0.4080    0.3632   -0.2685   -0.3371    0.3379


          DESCRIPTION OF VIBRATIONS


 VIBRATION          1    1A2"        ATOM PAIR     ENERGY CONTRIBUTION    RADIAL
 FREQUENCY         -1108.51         H 1 -- N 3         -50.8% (-96.6%)    100.0%
 TRANSITION DIPOLE   5.9146         H 1 -- N 2         -50.8% (-96.6%)    100.0%
 TRAVEL (Ang.)       0.2537         N 3 -- H 5          -0.3% ( -6.9%)     46.1%
 REDUCED MASS        0.9450         N 2 -- H 4          -0.3% ( -6.9%)     45.9%
 EFFECTIVE MASS      1.0675
 FORCE CONSTANT     -0.6842

 VIBRATION          3    1E'         ATOM PAIR     ENERGY CONTRIBUTION    RADIAL
 FREQUENCY           322.40         H 1 -- N 3         +20.5% (167.7%)      0.0%
 TRANSITION DIPOLE   0.6493         H 1 -- N 2         +20.5% (167.7%)      0.0%
 TRAVEL (Ang.)       0.0000         N 3 -- H 8         +14.0% (138.5%)      0.8%
 REDUCED MASS        0.1822         N 2 -- H 6         +14.0% (138.5%)      0.8%
 EFFECTIVE MASS      1.5450         N 2 -- H 7         +12.2% (129.5%)      0.7%
 FORCE CONSTANT      0.0112         N 3 -- H 9         +12.2% (129.5%)      0.8%

 VIBRATION          4    1A1"        ATOM PAIR     ENERGY CONTRIBUTION    RADIAL
 FREQUENCY           336.60         N 2 -- H 4         +16.7% (147.1%)      0.0%
 TRANSITION DIPOLE   0.0000         N 3 -- H 5         +16.7% (147.1%)      0.0%
 TRAVEL (Ang.)       0.0000         N 2 -- H 6         +16.7% (147.1%)      0.0%
 REDUCED MASS        0.1680         N 2 -- H 7         +16.7% (147.1%)      0.0%
 EFFECTIVE MASS      1.0079         N 3 -- H 8         +16.7% (147.1%)      0.0%
 FORCE CONSTANT      0.0112         N 3 -- H 9         +16.7% (147.1%)      0.0%

 VIBRATION          5    1A1'        ATOM PAIR     ENERGY CONTRIBUTION    RADIAL
 FREQUENCY           549.70         H 1 -- N 3         +16.1% ( 86.2%)    100.0%
 TRANSITION DIPOLE   0.0000         H 1 -- N 2         +16.1% ( 86.2%)    100.0%
 TRAVEL (Ang.)       0.1614         N 3 -- H 5         +11.3% ( 72.3%)     12.3%
 REDUCED MASS        4.7110         N 2 -- H 7         +11.3% ( 72.3%)     12.3%
 EFFECTIVE MASS     19.6698         N 2 -- H 6         +11.3% ( 72.3%)     12.3%
 FORCE CONSTANT      0.8387         N 3 -- H 8         +11.3% ( 72.3%)     12.2%
                            N 3 -- H 9         +11.3% ( 72.3%)     12.2%
                            N 2 -- H 4         +11.3% ( 72.3%)     12.1%

 VIBRATION          7    1E"         ATOM PAIR     ENERGY CONTRIBUTION    RADIAL
 FREQUENCY           644.90         N 2 -- H 7         +21.7% ( 81.5%)      9.2%
 TRANSITION DIPOLE   0.0000         N 3 -- H 9         +21.7% ( 81.5%)      9.3%
 TRAVEL (Ang.)       0.5679         N 2 -- H 6         +13.3% ( 63.9%)      5.6%
 REDUCED MASS        0.3242         N 3 -- H 8         +13.3% ( 63.9%)      5.7%
 EFFECTIVE MASS      4.0276         N 3 -- H 5         +10.4% ( 56.4%)      2.9%
 FORCE CONSTANT      0.0794         N 2 -- H 4         +10.4% ( 56.4%)      3.1%

 VIBRATION          9    2E'         ATOM PAIR     ENERGY CONTRIBUTION    RADIAL
 FREQUENCY          1380.47         H 1 -- N 2         +43.6% ( 80.3%)      0.0%
 TRANSITION DIPOLE   1.3778         H 1 -- N 3         +43.6% ( 80.3%)      0.0%
 TRAVEL (Ang.)       0.2822         N 2 -- H 6          +2.2% ( 18.0%)      2.5%
 REDUCED MASS        0.6134         N 3 -- H 8          +2.2% ( 18.0%)      2.5%
 EFFECTIVE MASS      1.5913
 FORCE CONSTANT      0.6887

 VIBRATION         10    2A2"        ATOM PAIR     ENERGY CONTRIBUTION    RADIAL
 FREQUENCY          1387.24         N 3 -- H 9         +15.8% ( 36.9%)      3.1%
 TRANSITION DIPOLE   1.9371         N 2 -- H 7         +15.8% ( 36.9%)      3.2%
 TRAVEL (Ang.)       0.3927         N 2 -- H 6         +15.8% ( 36.9%)      3.2%
 REDUCED MASS        0.3153         N 3 -- H 8         +15.8% ( 36.9%)      3.1%
 EFFECTIVE MASS      2.1932         N 3 -- H 5         +15.8% ( 36.9%)      3.1%
 FORCE CONSTANT      0.3575         N 2 -- H 4         +15.8% ( 36.9%)      3.0%

 VIBRATION         11    2A1'        ATOM PAIR     ENERGY CONTRIBUTION    RADIAL
 FREQUENCY          1414.23         N 3 -- H 5         +15.8% ( 36.0%)      2.8%
 TRANSITION DIPOLE   0.0000         N 2 -- H 7         +15.8% ( 36.0%)      2.8%
 TRAVEL (Ang.)       0.3934         N 2 -- H 6         +15.8% ( 36.0%)      2.8%
 REDUCED MASS        0.3080         N 3 -- H 8         +15.7% ( 36.0%)      2.7%
 EFFECTIVE MASS      2.3466         N 3 -- H 9         +15.7% ( 36.0%)      2.7%
 FORCE CONSTANT      0.3630         N 2 -- H 4         +15.7% ( 36.0%)      2.7%

 VIBRATION         13    3E'         ATOM PAIR     ENERGY CONTRIBUTION    RADIAL
 FREQUENCY          1593.44         N 2 -- H 7         +27.8% ( 43.1%)      0.1%
 TRANSITION DIPOLE   0.7896         N 3 -- H 9         +27.8% ( 43.1%)      0.1%
 TRAVEL (Ang.)       0.4559         N 2 -- H 4         +13.5% ( 30.0%)      6.0%
 REDUCED MASS        0.2036         N 3 -- H 5         +13.4% ( 30.0%)      6.2%
 EFFECTIVE MASS      1.4158
 FORCE CONSTANT      0.3046

 VIBRATION         15    2E"         ATOM PAIR     ENERGY CONTRIBUTION    RADIAL
 FREQUENCY          1595.24         N 2 -- H 4         +28.9% ( 44.7%)      0.0%
 TRANSITION DIPOLE   0.0004         N 3 -- H 5         +28.9% ( 44.7%)      0.0%
 TRAVEL (Ang.)       0.4376         N 2 -- H 6         +11.1% ( 27.7%)     10.8%
 REDUCED MASS        0.2207         N 3 -- H 8         +11.0% ( 27.6%)     10.8%
 EFFECTIVE MASS      1.5113
 FORCE CONSTANT      0.3309

 VIBRATION         17    4E'         ATOM PAIR     ENERGY CONTRIBUTION    RADIAL
 FREQUENCY          2708.93         N 3 -- H 9         +25.9% ( 52.2%)     98.0%
 TRANSITION DIPOLE   1.6830         N 2 -- H 7         +25.9% ( 52.2%)     97.9%
 TRAVEL (Ang.)       0.3137         N 3 -- H 5         +23.3% ( 49.5%)     97.3%
 REDUCED MASS        0.2529         N 2 -- H 4         +23.3% ( 49.5%)     97.4%
 EFFECTIVE MASS      1.4740
 FORCE CONSTANT      1.0934

 VIBRATION         19    3E"         ATOM PAIR     ENERGY CONTRIBUTION    RADIAL
 FREQUENCY          2711.78         N 2 -- H 4         +32.6% ( 58.5%)     99.1%
 TRANSITION DIPOLE   0.0004         N 3 -- H 5         +32.6% ( 58.5%)     99.0%
 TRAVEL (Ang.)       0.3136         N 3 -- H 9         +10.5% ( 33.2%)     90.6%
 REDUCED MASS        0.2528         N 2 -- H 7         +10.5% ( 33.2%)     90.3%
 EFFECTIVE MASS      1.4651
 FORCE CONSTANT      1.0955

 VIBRATION         20    3A1'        ATOM PAIR     ENERGY CONTRIBUTION    RADIAL
 FREQUENCY          2784.61         N 3 -- H 9         +16.6% ( 39.3%)     98.7%
 TRANSITION DIPOLE   0.0000         N 3 -- H 8         +16.6% ( 39.3%)     98.7%
 TRAVEL (Ang.)       0.3836         N 2 -- H 4         +16.6% ( 39.3%)     98.6%
 REDUCED MASS        0.1645         N 3 -- H 5         +16.6% ( 39.3%)     98.7%
 EFFECTIVE MASS      1.1017         N 2 -- H 7         +16.6% ( 39.3%)     98.7%
 FORCE CONSTANT      0.7517         N 2 -- H 6         +16.6% ( 39.3%)     98.7%

 VIBRATION         21    3A2"        ATOM PAIR     ENERGY CONTRIBUTION    RADIAL
 FREQUENCY          2800.14         N 2 -- H 6         +16.7% ( 39.0%)     99.2%
 TRANSITION DIPOLE   0.6537         N 2 -- H 4         +16.7% ( 39.0%)     99.2%
 TRAVEL (Ang.)       0.3830         N 2 -- H 7         +16.7% ( 39.0%)     99.2%
 REDUCED MASS        0.1641         N 3 -- H 5         +16.7% ( 39.0%)     99.2%
 EFFECTIVE MASS      1.0832         N 3 -- H 8         +16.7% ( 39.0%)     99.2%
 FORCE CONSTANT      0.7583         N 3 -- H 9         +16.7% ( 39.0%)     99.2%

           FORCE CONSTANT IN INTERNAL COORDINATES (Millidynes/A)

    ATOM   CHEMICAL  BOND LENGTH      BOND ANGLE     TWIST ANGLE
   NUMBER   SYMBOL  FORCE CONSTANT  FORCE CONSTANT  FORCE CONSTANT

      1       H        0.000000        0.000000        0.000000
      2       N        1.343221        0.000000        0.000000
      3       N        1.343220        4.946240        0.000000
      4       H        2.795882        2.030769        0.788241
      5       H        2.781171        2.044079        0.786095
      6       H        2.778615        2.046802        0.785137
      7       H        2.777701        2.048572        0.785331
      8       H        2.787028        2.039996        0.786776
      9       H        2.786697        2.038274        0.785899
 *******************************************************************************
 ** Site#: 37037        For non-commercial use only           Version 21.158W **
 *******************************************************************************
 ** Cite this program as: MOPAC2016, Version: 21.158W, James J. P. Stewart,   **
 ** Stewart Computational Chemistry, web: HTTP://OpenMOPAC.net. Days left: 361**
 *******************************************************************************
 **                                                                           **
 **                                MOPAC2016                                  **
 **                                                                           **
 *******************************************************************************

                              PM7 CALCULATION RESULTS

 *******************************************************************************
 *  CALCULATION DONE:                                Fri Jun 11 08:14:27 2021  *
 *
 *
 *
 *                 CHARGE ON SYSTEM = +1
 *
 *
 *
 *  EPS=78.4   - USE ANDREAS KLAMT'S COSMO IMPLICIT SOLVATION MODEL
 *  IRC=N      - INTRINSIC REACTION COORDINATE  1 DEFINED
 *  DRC        - DYNAMIC REACTION COORDINATE CALCULATION
 *  OLDGEO     - PREVIOUS GEOMETRY TO BE USED
 *  RESTART    - CALCULATION RESTARTED
 *  T=         - A TIME OF 172800.0 SECONDS REQUESTED
 *  DUMP=N     - RESTART FILE WRITTEN EVERY 7200.0 SECONDS REQUESTED
 *  CYCLES=    - DO A MAXIMUM OF 100 STEPS
 *  HTML       - WRITE HTML SCRIPT TO GENERATE ANIMATION USING JSMOL
 *             - TO DISPLAY IN PDB FORMAT, ADD "PDBOUT"
 *  T-PRIOR    - TIME TAKES PRIORITY IN DRC
 *******************************************************************************
oldgeo IRC=1* restart HTML eps=78.4 T-priority=0.5 DRC cycles=100
 [NH4](+) + NH3 <=> NH3 + [NH4](+)
 (In aqueous media)
  ATOM    CHEMICAL      BOND LENGTH      BOND ANGLE     TWIST ANGLE 
 NUMBER    SYMBOL       (ANGSTROMS)      (DEGREES)       (DEGREES) 
   (I)                     NA:I           NB:NA:I       NC:NB:NA:I       NA    NB    NC 
     1       H          0.00000000       0.0000000       0.0000000        0     0     0
     2       N          1.31021237  *   -0.0000000  *   -0.0000000  *     1     0     0
     3       N          1.31021237     180.0428239  *    0.0000000  *     1     2     0
     4       H          1.01165009  *  110.1419960  * -179.9956712  *     2     1     3
     5       H          1.01121816  *  110.2874583  * -179.7976115  *     3     1     2
     6       H          1.01124313  *  110.3848691  *  -60.1482622  *     2     1     3
     7       H          1.01145205  *  110.3986040  *   60.0184976  *     2     1     3
     8       H          1.01169294  *  110.2938803  *   60.2181990  *     3     1     2
     9       H          1.01117896  *  110.3004762  *  -59.7954241  *     3     1     2
 


          CARTESIAN COORDINATES 

    NO.       ATOM           X           Y           Z

     1         H          0.0000      0.0000      0.0000
     2         N          1.3102      0.0000      0.0000
     3         N         -1.3102     -0.0010      0.0000
     4         H          1.6586      0.9498      0.0001
     5         H         -1.6615      0.9472     -0.0034
     6         H          1.6625     -0.4718      0.8221
     7         H          1.6628     -0.4737     -0.8212
     8         H         -1.6608     -0.4726      0.8236
     9         H         -1.6607     -0.4784     -0.8196

 General Reference for PM7:
 "Optimization of Parameters for Semiempirical Methods VI: More Modifications to the 
 NDDO Approximations and Re-optimization of Parameters", J. J. P. Stewart, J. Mol. Mod., 1:32, 19 (2013)
 https://link.springer.com/article/10.1007/s00894-012-1667-x

           Empirical Formula: H7 N2  =     9 atoms



      MOLECULAR POINT GROUP   :   D3h 


      RHF CALCULATION, NO. OF DOUBLY OCCUPIED LEVELS = 8


          MOLECULAR WEIGHT =   35.07


          ESTIMATED TIME TO COMPLETE CALCULATION =        0.00 SECONDS

          TIME USED UP TO RESTART =                  0.17

    FOR POINT-GROUP D3h  THERE ARE  12 UNIQUE SYMMETRY FUNCTIONS.

           INITIAL VELOCITY IN DRC (Angstroms/Femtosecond)
         0.74491        -0.00033        -0.00001
        -0.02018         0.00000         0.00000
        -0.02018         0.00002        -0.00000
        -0.03070        -0.01841         0.00001
        -0.03068         0.01844        -0.00006
        -0.03068         0.00921        -0.01595
        -0.03068         0.00922         0.01595
        -0.03069        -0.00914         0.01598
        -0.03069        -0.00924        -0.01592
 THE VIBRATIONAL FREQUENCY ( -1108.51CM(-1)) IS TOO SMALL
 FOR ONE QUANTUM TO BE USED
 INSTEAD 0.3KCAL/MOLE WILL BE USED TO START THE IRC

 TIME PRIORITY, INTERVAL = 0.50 FEMTOSECONDS



 FEMTOSECONDS  POINT  POTENTIAL + KINETIC  =   TOTAL     ERROR    REF%   MOVEMENT
     0.000       1    61.65435    0.30000    61.95435   0.00000     1   %  0.0000
     0.500       1    61.65408    0.27744    61.93151  -0.02284     2   %  0.0100
     1.000       1    61.64656    0.27034    61.91690  -0.03745     3   %  0.0202
     1.500       1    61.63179    0.27872    61.91051  -0.04384     4   %  0.0308
     2.000       1    61.60978    0.30257    61.91235  -0.04201     5   %  0.0417
     2.500       1    61.58052    0.34188    61.92240  -0.03195     6   %  0.0529
     3.000       2    61.55907    0.41752    61.97658   0.02223     7   %  0.0628
     3.500       2    61.51155    0.48257    61.99412   0.03977     8   %  0.0750
     4.000       2    61.44926    0.55266    62.00192   0.04757     9   %  0.0883
     4.500       3    61.36125    0.60395    61.96520   0.01085    10   %  0.1028
     5.000       3    61.26577    0.67619    61.94195  -0.01240    11   %  0.1184
     5.500       3    61.16280    0.76938    61.93219  -0.02216    12   %  0.1350
     6.000       3    61.05236    0.88353    61.93590  -0.01845    13   %  0.1527
     6.500       4    60.88800    1.08644    61.97443   0.02009    14   %  0.1712
     7.000       4    60.74712    1.26510    62.01222   0.05787    15   %  0.1909
     7.500       4    60.62973    1.41951    62.04924   0.09489    16   %  0.2119
     8.000       4    60.53582    1.54969    62.08550   0.13116    17   %  0.2341
     8.500       5    60.28629    1.91664    62.20293   0.24859    18   %  0.2593
     9.000       5    60.17966    2.08533    62.26499   0.31064    19   %  0.2846
     9.500       5    60.21591    2.05577    62.27167   0.31733    20   %  0.3100
    10.000       5    60.39504    1.82794    62.22298   0.26864    21   %  0.3355
    11.000       8    60.93066    1.07228    62.00294   0.04859    22   %  0.3830
    11.500       9    61.19789    0.80961    62.00750   0.05316    23   %  0.4022
    12.000      10    61.38209    0.57966    61.96176   0.00741    24   %  0.4184
    12.500      11    61.48959    0.46234    61.95193  -0.00242    25   %  0.4312
    13.000      12    61.49078    0.45976    61.95054  -0.00380    26   %  0.4419
    13.500      12    61.37123    0.57648    61.94771  -0.00664    27   %  0.4520
    14.000      13    61.15315    0.81450    61.96766   0.01331    28   %  0.4598
    14.500      14    60.85227    1.10870    61.96097   0.00663    29   %  0.4656
    15.000      15    60.55047    1.43634    61.98681   0.03247    30   %  0.4701
    15.500      16    60.19215    1.73552    61.92767  -0.02668    31   %  0.4738
    16.000      16    59.75533    1.98203    61.73736  -0.21698    32   %  0.4773
    16.500      17    59.56372    2.38846    61.95218  -0.00216    33   %  0.4814
    17.000      18    59.48376    2.48508    61.96884   0.01450    34   %  0.4869
    17.500      19    59.47875    2.46344    61.94219  -0.01215    35   %  0.4943
    18.000      20    59.53705    2.41185    61.94890  -0.00543    36   %  0.5037
    18.500      21    59.62936    2.30454    61.93390  -0.02044    37   %  0.5154
    19.000      22    59.77797    2.17229    61.95026  -0.00408    38   %  0.5293
    19.500      22    59.97430    2.02545    61.99974   0.04541    39   %  0.5455
    20.000      23    60.19425    1.84041    62.03465   0.08032    40   %  0.5641
    20.500      24    60.34523    1.64516    61.99039   0.03606    41   %  0.5847
    21.000      25    60.45910    1.49877    61.95787   0.00354    42   %  0.6070
    21.500      25    60.53713    1.41399    61.95112  -0.00321    43   %  0.6310
    22.000      26    60.54752    1.36729    61.91481  -0.03952    44   %  0.6569
    22.500      27    60.52471    1.38777    61.91248  -0.04185    45   %  0.6845
    23.000      27    60.47048    1.47553    61.94602  -0.00831    46   %  0.7141
    23.500      28    60.36265    1.59300    61.95565   0.00132    47   %  0.7460
    24.000      28    60.18839    1.75972    61.94811  -0.00622    48   %  0.7797
    24.500      29    59.90957    1.98570    61.89527  -0.05906    49   %  0.8152
    25.000      30    59.62287    2.27641    61.89928  -0.05505    50   %  0.8524
    25.500      30    59.34687    2.65635    62.00322   0.04889    51   %  0.8912
    26.000      31    59.03565    3.07783    62.11349   0.15916    52   %  0.9319
    26.500      31    58.67971    3.56958    62.24929   0.29496    53   %  0.9747
    27.000      32    58.43274    3.63838    62.07112   0.11680    54   %  1.0181
    27.500      34    58.31188    3.63484    61.94672  -0.00760    55   %  1.0611
    28.000      35    58.31821    3.61234    61.93056  -0.02377    56   %  1.1035
    28.500      37    58.68453    3.37315    62.05768   0.10336    57   %  1.1452
    29.000      38    59.11859    2.86251    61.98110   0.02678    58   %  1.1850
    29.500      39    59.56329    2.38716    61.95045  -0.00387    59   %  1.2217
    30.000      41    59.96615    1.98130    61.94746  -0.00686    60   %  1.2551
    30.500      42    60.22304    1.72824    61.95127  -0.00304    61   %  1.2849
    31.000      43    60.24145    1.71223    61.95368  -0.00064    62   %  1.3108
    31.500      44    60.01898    1.95169    61.97067   0.01635    63   %  1.3327
    32.000      45    59.59609    2.37862    61.97471   0.02040    64   %  1.3510
    32.500      46    59.07340    2.89358    61.96698   0.01267    65   %  1.3660
    33.000      47    58.57357    3.38638    61.95995   0.00564    66   %  1.3786
    33.500      49    58.19946    3.75674    61.95620   0.00189    67   %  1.3896
    34.000      50    57.92037    3.92629    61.84666  -0.10765    68   %  1.3999
    34.500      52    57.91770    4.03629    61.95399  -0.00032    69   %  1.4106
    35.000      53    58.15008    3.81097    61.96105   0.00674    70   %  1.4226
    35.500      54    58.51958    3.44007    61.95965   0.00534    71   %  1.4363
    36.000      55    58.95533    2.99247    61.94780  -0.00651    72   %  1.4524
    36.500      57    59.40401    2.53984    61.94384  -0.01046    73   %  1.4714
    37.000      58    59.80851    2.14593    61.95444   0.00014    74   %  1.4939
    37.500      59    60.05405    1.89201    61.94606  -0.00825    75   %  1.5205
    38.000      60    60.07363    1.87083    61.94446  -0.00984    76   %  1.5514
    38.500      61    59.87860    2.09092    61.96952   0.01522    77   %  1.5869
    39.000      61    59.51894    2.47036    61.98930   0.03500    78   %  1.6266
    39.500      62    59.04255    2.91678    61.95933   0.00504    79   %  1.6700
    40.000      63    58.55150    3.39737    61.94887  -0.00543    80   %  1.7161
    40.500      64    58.12432    3.82833    61.95265  -0.00165    81   %  1.7645
    41.000      65    57.84572    4.11708    61.96280   0.00850    82   %  1.8148
    41.500      67    57.77638    4.23020    62.00658   0.05229    83   %  1.8661
    42.000      68    58.03974    3.94759    61.98732   0.03303    84   %  1.9176
    42.500      70    58.44367    3.50520    61.94887  -0.00543    85   %  1.9672
    43.000      72    58.99531    2.94844    61.94375  -0.01054    86   %  2.0147
    43.500      73    59.54644    2.38831    61.93475  -0.01954    87   %  2.0589
    44.000      75    59.97913    1.95906    61.93819  -0.01610    88   %  2.0994
    44.500      76    60.15089    1.78238    61.93328  -0.02101    89   %  2.1354
    45.000      77    60.03941    1.93421    61.97363   0.01934    90   %  2.1664
    45.500      78    59.62309    2.31580    61.93889  -0.01540    91   %  2.1925
    46.000      79    59.03070    2.90228    61.93298  -0.02131    92   %  2.2138
    46.500      81    58.46507    3.49377    61.95885   0.00456    93   %  2.2310
    47.000      82    58.05060    3.90062    61.95122  -0.00307    94   %  2.2451
    47.500      84    57.80141    4.12503    61.92644  -0.02784    95   %  2.2568
    48.000      86    57.95298    4.05221    62.00519   0.05091    96   %  2.2673
    48.500      87    58.26111    3.68682    61.94793  -0.00635    97   %  2.2775
    49.000      88    58.72436    3.22747    61.95182  -0.00245    98   %  2.2881
    49.500      90    59.14634    2.71592    61.86226  -0.09202    99   %  2.2999
    50.000      91    59.67155    2.29887    61.97042   0.01614   100   %  2.3138


           INITIAL VELOCITY IN DRC (Angstroms/Femtosecond)
        -0.74491         0.00033         0.00001
         0.02018        -0.00000        -0.00000
         0.02018        -0.00002         0.00000
         0.03070         0.01841        -0.00001
         0.03068        -0.01844         0.00006
         0.03068        -0.00921         0.01595
         0.03068        -0.00922        -0.01595
         0.03069         0.00914        -0.01598
         0.03069         0.00924         0.01592
 THE VIBRATIONAL FREQUENCY ( -1108.51CM(-1)) IS TOO SMALL
 FOR ONE QUANTUM TO BE USED
 INSTEAD 0.3KCAL/MOLE WILL BE USED TO START THE IRC

 TIME PRIORITY, INTERVAL = 0.50 FEMTOSECONDS



 FEMTOSECONDS  POINT  POTENTIAL + KINETIC  =   TOTAL     ERROR    REF%   MOVEMENT
     0.000       1    61.65435    0.30000    61.95435   0.00000     1   %  0.0000
     0.500       1    61.65409    0.27583    61.92992  -0.02443     2   %  0.0100
     1.000       1    61.64623    0.26736    61.91359  -0.04076     3   %  0.0203
     1.500       1    61.63076    0.27461    61.90538  -0.04898     4   %  0.0308
     2.000       1    61.60770    0.29757    61.90527  -0.04908     5   %  0.0416
     2.500       1    61.57703    0.33625    61.91328  -0.04108     6   %  0.0528
     3.000       2    61.55182    0.41216    61.96399   0.00964     7   %  0.0625
     3.500       2    61.50269    0.47688    61.97956   0.02521     8   %  0.0746
     4.000       2    61.43942    0.54653    61.98595   0.03160     9   %  0.0878
     4.500       3    61.34658    0.59770    61.94428  -0.01008    10   %  0.1022
     5.000       3    61.24989    0.66944    61.91933  -0.03502    11   %  0.1176
     5.500       3    61.14937    0.76174    61.91111  -0.04324    12   %  0.1341
     6.000       3    61.04501    0.87461    61.91962  -0.03473    13   %  0.1517
     6.500       4    60.89798    1.07780    61.97578   0.02143    14   %  0.1700
     7.000       4    60.77299    1.25505    62.02805   0.07370    15   %  0.1895
     7.500       4    60.67004    1.40638    62.07643   0.12208    16   %  0.2104
     8.000       4    60.58914    1.53178    62.12092   0.16657    17   %  0.2325
     8.500       5    60.47519    1.89872    62.37391   0.41957    18   %  0.2578
     9.000       5    60.42000    2.06142    62.48142   0.52708    19   %  0.2831
     9.500       5    60.42358    2.01988    62.44345   0.48911    20   %  0.3084
    10.000       5    60.48591    1.77409    62.26000   0.30566    21   %  0.3337
    11.000       8    60.87862    1.12804    62.00666   0.05232    22   %  0.3807
    11.500       9    61.08689    0.86596    61.95285  -0.00149    23   %  0.4004
    12.000      10    61.28258    0.67162    61.95420  -0.00015    24   %  0.4173
    12.500      11    61.40245    0.53990    61.94235  -0.01200    25   %  0.4315
    13.000      12    61.42904    0.51809    61.94712  -0.00722    26   %  0.4435
    13.500      12    61.35259    0.61614    61.96873   0.01438    27   %  0.4551
    14.000      13    61.14244    0.80642    61.94885  -0.00549    28   %  0.4645
    14.500      14    60.85192    1.10744    61.95935   0.00501    29   %  0.4717
    15.000      15    60.52731    1.44166    61.96897   0.01463    30   %  0.4773
    15.500      15    60.20374    1.75915    61.96288   0.00854    31   %  0.4820
    16.000      16    59.89725    2.03307    61.93032  -0.02402    32   %  0.4864
    16.500      17    59.69181    2.25824    61.95005  -0.00429    33   %  0.4911
    17.000      18    59.57677    2.37621    61.95298  -0.00136    34   %  0.4968
    17.500      19    59.53059    2.39512    61.92572  -0.02862    35   %  0.5041
    18.000      20    59.55298    2.36595    61.91893  -0.03540    36   %  0.5132
    18.500      20    59.64219    2.30843    61.95062  -0.00372    37   %  0.5245
    19.000      21    59.78608    2.18265    61.96872   0.01439    38   %  0.5380
    19.500      22    59.97688    2.02812    62.00500   0.05066    39   %  0.5539
    20.000      23    60.15270    1.85756    62.01026   0.05592    40   %  0.5719
    20.500      23    60.28173    1.67926    61.96099   0.00666    41   %  0.5921
    21.000      24    60.39171    1.55722    61.94892  -0.00541    42   %  0.6141
    21.500      25    60.46924    1.47818    61.94742  -0.00691    43   %  0.6380
    22.000      25    60.51093    1.43428    61.94521  -0.00912    44   %  0.6639
    22.500      26    60.50494    1.43687    61.94181  -0.01252    45   %  0.6919
    23.000      26    60.44947    1.48990    61.93937  -0.01496    46   %  0.7217
    23.500      27    60.34254    1.59975    61.94229  -0.01204    47   %  0.7535
    24.000      27    60.18293    1.76361    61.94655  -0.00778    48   %  0.7871
    24.500      28    59.95101    1.98808    61.93910  -0.01523    49   %  0.8227
    25.000      28    59.70106    2.25148    61.95253  -0.00180    50   %  0.8601
    25.500      29    59.43550    2.57452    62.01003   0.05570    51   %  0.8992
    26.000      29    59.16911    2.89008    62.05919   0.10486    52   %  0.9398
    26.500      30    58.82524    3.38314    62.20838   0.25405    53   %  0.9823
    27.000      30    58.60919    3.55287    62.16207   0.20774    54   %  1.0253
    27.500      32    58.47088    3.42679    61.89767  -0.05665    55   %  1.0685
    28.000      34    58.46602    3.49196    61.95798   0.00366    56   %  1.1106
    28.500      35    58.62757    3.27860    61.90617  -0.04815    57   %  1.1525
    29.000      37    58.95466    2.99379    61.94845  -0.00587    58   %  1.1929
    29.500      38    59.39889    2.56090    61.95979   0.00547    59   %  1.2314
    30.000      39    59.79792    2.14649    61.94441  -0.00990    60   %  1.2668
    30.500      40    60.06805    1.87889    61.94694  -0.00738    61   %  1.2987
    31.000      41    60.11377    1.82566    61.93942  -0.01490    62   %  1.3268
    31.500      42    59.92708    2.03028    61.95736   0.00305    63   %  1.3511
    32.000      43    59.55731    2.42938    61.98669   0.03237    64   %  1.3718
    32.500      44    59.06264    2.91417    61.97681   0.02250    65   %  1.3892
    33.000      46    58.57051    3.39382    61.96433   0.01002    66   %  1.4039
    33.500      47    58.19302    3.76709    61.96012   0.00580    67   %  1.4169
    34.000      49    58.03402    3.96082    61.99483   0.04052    68   %  1.4291
    34.500      50    58.09358    3.88700    61.98058   0.02627    69   %  1.4413
    35.000      51    58.25607    3.68924    61.94531  -0.00899    70   %  1.4543
    35.500      52    58.56533    3.38417    61.94950  -0.00480    71   %  1.4687
    36.000      54    58.95896    2.99074    61.94970  -0.00461    72   %  1.4853
    36.500      55    59.35872    2.57536    61.93407  -0.02023    73   %  1.5046
    37.000      56    59.71411    2.21755    61.93166  -0.02265    74   %  1.5271
    37.500      57    59.95909    1.98058    61.93966  -0.01464    75   %  1.5533
    38.000      58    60.02787    1.92272    61.95059  -0.00371    76   %  1.5836
    38.500      58    59.89391    2.06435    61.95826   0.00396    77   %  1.6181
    39.000      59    59.58166    2.38439    61.96605   0.01175    78   %  1.6566
    39.500      60    59.14193    2.80073    61.94266  -0.01164    79   %  1.6988
    40.000      61    58.71133    3.27341    61.98473   0.03043    80   %  1.7438
    40.500      62    58.31390    3.65676    61.97067   0.01637    81   %  1.7914
    41.000      63    58.03135    3.93850    61.96985   0.01556    82   %  1.8407
    41.500      64    57.76445    4.06063    61.82508  -0.12921    83   %  1.8911
    42.000      66    57.83641    4.11067    61.94708  -0.00721    84   %  1.9419
    42.500      67    58.18931    3.77148    61.96079   0.00650    85   %  1.9928
    43.000      69    58.76361    3.23009    61.99370   0.03940    86   %  2.0418
    43.500      71    59.33241    2.60888    61.94129  -0.01299    87   %  2.0879
    44.000      72    59.79926    2.14317    61.94243  -0.01186    88   %  2.1299
    44.500      73    60.01641    1.90426    61.92067  -0.03362    89   %  2.1675
    45.000      75    59.95393    1.99356    61.94748  -0.00680    90   %  2.2005
    45.500      76    59.57473    2.34261    61.91734  -0.03695    91   %  2.2287
    46.000      77    58.97454    2.93180    61.90634  -0.04795    92   %  2.2522
    46.500      78    58.51401    3.53859    62.05260   0.09831    93   %  2.2718
    47.000      80    58.10210    3.84271    61.94481  -0.00947    94   %  2.2881
    47.500      81    57.89085    4.07446    61.96532   0.01103    95   %  2.3018
    48.000      83    57.87171    4.04458    61.91629  -0.03799    96   %  2.3142
    48.500      84    58.09326    3.83452    61.92777  -0.02651    97   %  2.3261
    49.000      86    58.51580    3.43589    61.95169  -0.00259    98   %  2.3385
    49.500      87    59.07989    2.90460    61.98449   0.03021    99   %  2.3521
    50.000      88    59.56484    2.37190    61.93674  -0.01754   100   %  2.3675



 **********************
 *                    *
 * JOB ENDED NORMALLY *
 *                    *
 **********************



 TOTAL JOB TIME:             4.53 SECONDS

 == MOPAC DONE ==
