 *******************************************************************************
 ** Site#: 29054        For non-commercial use only    Version 18.038W 64BITS **
 *******************************************************************************
 ** Cite this program as: MOPAC2016, Version: 18.038W, James J. P. Stewart,   **
 ** Stewart Computational Chemistry, web: HTTP://OpenMOPAC.net. Days left: 360**
 *******************************************************************************
 **                                                                           **
 **                                MOPAC2016                                  **
 **                                                                           **
 *******************************************************************************

                              PM7 CALCULATION RESULTS


 *******************************************************************************
 *  CALCULATION DONE:                                Mon Feb 12 13:39:45 2018  *
 *  RESIDUES   - DETERMINE THE SEQUENCE OF RESIDUES
 *  STEP       - STEP-SIZE IN PATH =   4.000
 *  POINT      - NUMBER OF POINTS IN PATH = 90
 *  T=         - A TIME OF 172800.0 SECONDS REQUESTED
 *  DUMP=N     - RESTART FILE WRITTEN EVERY  7200.000 SECONDS
 *  HTML       - WRITE HTML SCRIPT TO GENERATE ANIMATION USING JSMOL
 *             - TO DISPLAY IN PDB FORMAT, ADD "PDBOUT"
 *******************************************************************************
  step=4.0 points=90 html
  Rotation barrier for C2-C3 in butane

  ATOM    CHEMICAL      BOND LENGTH      BOND ANGLE     TWIST ANGLE 
 NUMBER    SYMBOL       (ANGSTROMS)      (DEGREES)       (DEGREES) 
   (I)                     NA:I           NB:NA:I       NC:NB:NA:I       NA    NB    NC 
     1       C          0.00000000       0.0000000       0.0000000        0     0     0
     2       C          1.52691600  *    0.0000000       0.0000000        1     0     0
     3       C          1.53579272  *  111.7566516  *    0.0000000        2     1     0
     4       C          1.52689230  *  111.7618411  *  180.0000000  +     3     2     1
     5       H          1.09555239  *  111.5708099  *  -60.5786231  *     1     2     3
     6       H          1.09587739  *  111.6072973  *   59.5855797  *     1     2     3
     7       H          1.09572059  *  111.2305456  *  179.5217282  *     1     2     3
     8       H          1.10728436  *  109.7539771  *  122.0421179  *     2     1     3
     9       H          1.10750660  *  109.8550534  * -122.0607077  *     2     1     3
    10       H          1.10760646  *  109.7773877  *  -57.9810037  *     3     2     1
    11       H          1.10753692  *  109.7518433  *   57.8549695  *     3     2     1
    12       H          1.09579956  *  111.5945177  *  -59.5385890  *     4     3     2
    13       H          1.09558567  *  111.5595014  *   60.6071874  *     4     3     2
    14       H          1.09562502  *  111.2440010  * -179.4830226  *     4     3     2
 


          CARTESIAN COORDINATES 

    NO.       ATOM           X           Y           Z

     1         C          0.0000      0.0000      0.0000
     2         C          1.5269      0.0000      0.0000
     3         C          2.0962      1.4264      0.0000
     4         C          3.6231      1.4265      0.0000
     5         H         -0.4028      0.5005      0.8874
     6         H         -0.4035      0.5158     -0.8787
     7         H         -0.3968     -1.0213     -0.0085
     8         H          1.9012     -0.5529      0.8834
     9         H          1.9031     -0.5529     -0.8828
    10         H          1.7218      1.9793     -0.8837
    11         H          1.7198      1.9796      0.8826
    12         H          4.0264      0.9100      0.8783
    13         H          4.0257      0.9265     -0.8878
    14         H          4.0200      2.4477      0.0092

 General Reference for PM7:
 "Optimization of Parameters for Semiempirical Methods VI: More Modifications to the 
 NDDO Approximations and Re-optimization of Parameters", J. J. P. Stewart, J. Mol. Mod., 1:32, 19 (2013)
 http://www.springerlink.com/openurl.asp?genre=article&id=doi:10.1007/s00894-012-1667-x

           Empirical Formula: C4 H10  =    14 atoms



      MOLECULAR POINT GROUP   :   C2h 


      RHF CALCULATION, NO. OF DOUBLY OCCUPIED LEVELS = 13

  ABOUT TO ENTER EF FROM PATHK

          Geometry optimization using EF

          DIAGONAL MATRIX USED AS START HESSIAN

 CYCLE:     1 TIME:   0.000 TIME LEFT:  2.00D  GRAD.:     3.782 HEAT: -28.17573
 CYCLE:     2 TIME:   0.000 TIME LEFT:  2.00D  GRAD.:     2.017 HEAT: -28.19389
 CYCLE:     3 TIME:   0.016 TIME LEFT:  2.00D  GRAD.:     1.237 HEAT: -28.20548
 CYCLE:     4 TIME:   0.000 TIME LEFT:  2.00D  GRAD.:     0.767 HEAT: -28.20836

     GRADIENT =  0.76669  IS LESS THAN CUTOFF =  1.00000



          VARIABLE        FUNCTION
 :       180.00000      -28.208356
*REMARK   3   HET = Not identified; C 4                            res:     1
 step=4.0 points=90 html
  Rotation barrier for C2-C3 in butane

  C(HETATM    1  C1  HET A   1)   0.00000000 +0    0.0000000 +0    0.0000000 +0
  C(HETATM    2  C2  HET A   1)   1.52900105 +1    0.0000000 +0    0.0000000 +0     1     0     0
  C(HETATM    3  C3  HET A   1)   1.53435270 +1  111.0414182 +1    0.0000000 +0     2     1     0
  C(HETATM    4  C4  HET A   1)   1.52830783 +1  111.0170998 +1  180.0000000 -1     3     2     1
  H(HETATM    5 1H1  HET A   1)   1.09570925 +1  111.4570473 +1  -60.5218173 +1     1     2     3
  H(HETATM    6 2H1  HET A   1)   1.09558070 +1  111.4682949 +1   59.5970187 +1     1     2     3
  H(HETATM    7 3H1  HET A   1)   1.09557224 +1  111.1999755 +1  179.5312935 +1     1     2     3
  H(HETATM    8 1H2  HET A   1)   1.10641806 +1  109.9363846 +1  121.9646845 +1     2     1     3
  H(HETATM    9 2H2  HET A   1)   1.10627522 +1  109.9502778 +1 -121.9539989 +1     2     1     3
  H(HETATM   10 1H3  HET A   1)   1.10632794 +1  109.8201338 +1  -58.0003774 +1     3     2     1
  H(HETATM   11 2H3  HET A   1)   1.10630277 +1  109.8261990 +1   57.9929213 +1     3     2     1
  H(HETATM   12 1H4  HET A   1)   1.09566296 +1  111.4648022 +1  -59.5425555 +1     4     3     2
  H(HETATM   13 2H4  HET A   1)   1.09571894 +1  111.4435032 +1   60.5662271 +1     4     3     2
  H(HETATM   14 3H4  HET A   1)   1.09566117 +1  111.2137346 +1 -179.4900393 +1     4     3     2
 

          Geometry optimization using EF

          DIAGONAL MATRIX USED AS START HESSIAN

 CYCLE:     1 TIME:   0.000 TIME LEFT:  2.00D  GRAD.:     8.208 HEAT: -27.87481
 CYCLE:     2 TIME:   0.000 TIME LEFT:  2.00D  GRAD.:     4.252 HEAT: -28.07212
 CYCLE:     3 TIME:   0.000 TIME LEFT:  2.00D  GRAD.:     2.216 HEAT: -28.17797
 CYCLE:     4 TIME:   0.016 TIME LEFT:  2.00D  GRAD.:     1.498 HEAT: -28.18414
 CYCLE:     5 TIME:   0.000 TIME LEFT:  2.00D  GRAD.:     0.842 HEAT: -28.19100

     GRADIENT =  0.84196  IS LESS THAN CUTOFF =  1.00000



          VARIABLE        FUNCTION
 :       184.00000      -28.191008
*REMARK   3   HET = Not identified; C 4                            res:     1
 step=4.0 points=90 html
  Rotation barrier for C2-C3 in butane

  C(HETATM    1  C1  HET A   1)   0.00000000 +0    0.0000000 +0    0.0000000 +0
  C(HETATM    2  C2  HET A   1)   1.52873685 +1    0.0000000 +0    0.0000000 +0     1     0     0
  C(HETATM    3  C3  HET A   1)   1.53516072 +1  110.9958945 +1    0.0000000 +0     2     1     0
  C(HETATM    4  C4  HET A   1)   1.52884289 +1  110.9866340 +1 -176.0000000 -1     3     2     1
  H(HETATM    5 1H1  HET A   1)   1.09562745 +1  111.4254634 +1  -60.4371305 +1     1     2     3
  H(HETATM    6 2H1  HET A   1)   1.09562363 +1  111.4542767 +1   59.6783516 +1     1     2     3
  H(HETATM    7 3H1  HET A   1)   1.09550880 +1  111.2303439 +1  179.6072138 +1     1     2     3
  H(HETATM    8 1H2  HET A   1)   1.10611665 +1  110.0771268 +1  121.9883865 +1     2     1     3
  H(HETATM    9 2H2  HET A   1)   1.10628499 +1  109.9524314 +1 -121.8139873 +1     2     1     3
  H(HETATM   10 1H3  HET A   1)   1.10592776 +1  109.6973763 +1  -54.2400480 +1     3     2     1
  H(HETATM   11 2H3  HET A   1)   1.10645700 +1  110.1447427 +1   61.8656381 +1     3     2     1
  H(HETATM   12 1H4  HET A   1)   1.09553925 +1  111.4414240 +1  -59.5459062 +1     4     3     2
  H(HETATM   13 2H4  HET A   1)   1.09576664 +1  111.4290117 +1   60.5555435 +1     4     3     2
  H(HETATM   14 3H4  HET A   1)   1.09553737 +1  111.2463159 +1 -179.5517515 +1     4     3     2
 

          Geometry optimization using EF

          DIAGONAL MATRIX USED AS START HESSIAN

 CYCLE:     1 TIME:   0.000 TIME LEFT:  2.00D  GRAD.:     8.189 HEAT: -27.82904
 CYCLE:     2 TIME:   0.000 TIME LEFT:  2.00D  GRAD.:     4.130 HEAT: -28.02115
 CYCLE:     3 TIME:   0.000 TIME LEFT:  2.00D  GRAD.:     2.398 HEAT: -28.12463
 CYCLE:     4 TIME:   0.000 TIME LEFT:  2.00D  GRAD.:     1.713 HEAT: -28.13253
 CYCLE:     5 TIME:   0.016 TIME LEFT:  2.00D  GRAD.:     0.883 HEAT: -28.14135

     GRADIENT =  0.88291  IS LESS THAN CUTOFF =  1.00000



          VARIABLE        FUNCTION
 :       188.00000      -28.141359
*REMARK   3   HET = Not identified; C 4                            res:     1
 step=4.0 points=90 html
  Rotation barrier for C2-C3 in butane

  C(HETATM    1  C1  HET A   1)   0.00000000 +0    0.0000000 +0    0.0000000 +0
  C(HETATM    2  C2  HET A   1)   1.52875309 +1    0.0000000 +0    0.0000000 +0     1     0     0
  C(HETATM    3  C3  HET A   1)   1.53537157 +1  111.0217230 +1    0.0000000 +0     2     1     0
  C(HETATM    4  C4  HET A   1)   1.52889419 +1  111.0146008 +1 -172.0000000 -1     3     2     1
  H(HETATM    5 1H1  HET A   1)   1.09563228 +1  111.4150260 +1  -60.3229092 +1     1     2     3
  H(HETATM    6 2H1  HET A   1)   1.09561702 +1  111.4630997 +1   59.8002336 +1     1     2     3
  H(HETATM    7 3H1  HET A   1)   1.09549973 +1  111.2342808 +1  179.7248974 +1     1     2     3
  H(HETATM    8 1H2  HET A   1)   1.10591287 +1  110.1610159 +1  122.0608010 +1     2     1     3
  H(HETATM    9 2H2  HET A   1)   1.10644467 +1  109.8469855 +1 -121.7593178 +1     2     1     3
  H(HETATM   10 1H3  HET A   1)   1.10619736 +1  109.6761798 +1  -50.3478461 +1     3     2     1
  H(HETATM   11 2H3  HET A   1)   1.10619033 +1  110.1829856 +1   65.7528896 +1     3     2     1
  H(HETATM   12 1H4  HET A   1)   1.09556753 +1  111.4296827 +1  -59.5346896 +1     4     3     2
  H(HETATM   13 2H4  HET A   1)   1.09575799 +1  111.4350583 +1   60.5725212 +1     4     3     2
  H(HETATM   14 3H4  HET A   1)   1.09553624 +1  111.2492387 +1 -179.5416279 +1     4     3     2
 

          Geometry optimization using EF

          DIAGONAL MATRIX USED AS START HESSIAN

 CYCLE:     1 TIME:   0.000 TIME LEFT:  2.00D  GRAD.:     8.101 HEAT: -27.75243
 CYCLE:     2 TIME:   0.000 TIME LEFT:  2.00D  GRAD.:     4.074 HEAT: -27.94144
 CYCLE:     3 TIME:   0.000 TIME LEFT:  2.00D  GRAD.:     2.403 HEAT: -28.04403
 CYCLE:     4 TIME:   0.016 TIME LEFT:  2.00D  GRAD.:     1.776 HEAT: -28.05259
 CYCLE:     5 TIME:   0.000 TIME LEFT:  2.00D  GRAD.:     0.883 HEAT: -28.06114

     GRADIENT =  0.88257  IS LESS THAN CUTOFF =  1.00000



          VARIABLE        FUNCTION
 :       192.00000      -28.061141
*REMARK   3   HET = Not identified; C 4                            res:     1
 step=4.0 points=90 html
  Rotation barrier for C2-C3 in butane

  C(HETATM    1  C1  HET A   1)   0.00000000 +0    0.0000000 +0    0.0000000 +0
  C(HETATM    2  C2  HET A   1)   1.52878921 +1    0.0000000 +0    0.0000000 +0     1     0     0
  C(HETATM    3  C3  HET A   1)   1.53562217 +1  111.0649380 +1    0.0000000 +0     2     1     0
  C(HETATM    4  C4  HET A   1)   1.52893697 +1  111.0602244 +1 -168.0000000 -1     3     2     1
  H(HETATM    5 1H1  HET A   1)   1.09563419 +1  111.4087310 +1  -60.1880571 +1     1     2     3
  H(HETATM    6 2H1  HET A   1)   1.09561489 +1  111.4681855 +1   59.9455104 +1     1     2     3
  H(HETATM    7 3H1  HET A   1)   1.09550650 +1  111.2329150 +1  179.8623480 +1     1     2     3
  H(HETATM    8 1H2  HET A   1)   1.10573512 +1  110.2288717 +1  122.1378421 +1     2     1     3
  H(HETATM    9 2H2  HET A   1)   1.10660217 +1  109.7411721 +1 -121.7323590 +1     2     1     3
  H(HETATM   10 1H3  HET A   1)   1.10671166 +1  109.6456613 +1  -46.4802227 +1     3     2     1
  H(HETATM   11 2H3  HET A   1)   1.10572113 +1  110.2326182 +1   69.5944355 +1     3     2     1
  H(HETATM   12 1H4  HET A   1)   1.09560052 +1  111.4262322 +1  -59.4953986 +1     4     3     2
  H(HETATM   13 2H4  HET A   1)   1.09573510 +1  111.4368477 +1   60.6188861 +1     4     3     2
  H(HETATM   14 3H4  HET A   1)   1.09555097 +1  111.2477952 +1 -179.4955000 +1     4     3     2
 

          Geometry optimization using EF

          DIAGONAL MATRIX USED AS START HESSIAN

 CYCLE:     1 TIME:   0.000 TIME LEFT:  2.00D  GRAD.:     7.989 HEAT: -27.64300
 CYCLE:     2 TIME:   0.000 TIME LEFT:  2.00D  GRAD.:     4.070 HEAT: -27.83122
 CYCLE:     3 TIME:   0.016 TIME LEFT:  2.00D  GRAD.:     2.450 HEAT: -27.93601
 CYCLE:     4 TIME:   0.000 TIME LEFT:  2.00D  GRAD.:     1.829 HEAT: -27.94507
 CYCLE:     5 TIME:   0.000 TIME LEFT:  2.00D  GRAD.:     0.921 HEAT: -27.95438

     GRADIENT =  0.92061  IS LESS THAN CUTOFF =  1.00000



          VARIABLE        FUNCTION
 :       196.00000      -27.954385
*REMARK   3   HET = Not identified; C 4                            res:     1
 step=4.0 points=90 html
  Rotation barrier for C2-C3 in butane

  C(HETATM    1  C1  HET A   1)   0.00000000 +0    0.0000000 +0    0.0000000 +0
  C(HETATM    2  C2  HET A   1)   1.52881994 +1    0.0000000 +0    0.0000000 +0     1     0     0
  C(HETATM    3  C3  HET A   1)   1.53595720 +1  111.1289898 +1    0.0000000 +0     2     1     0
  C(HETATM    4  C4  HET A   1)   1.52898592 +1  111.1170441 +1 -164.0000000 -1     3     2     1
  H(HETATM    5 1H1  HET A   1)   1.09563729 +1  111.4032847 +1  -60.0267403 +1     1     2     3
  H(HETATM    6 2H1  HET A   1)   1.09561289 +1  111.4716092 +1   60.1218998 +1     1     2     3
  H(HETATM    7 3H1  HET A   1)   1.09551392 +1  111.2304515 +1 -179.9705195 +1     1     2     3
  H(HETATM    8 1H2  HET A   1)   1.10556681 +1  110.2809837 +1  122.2268770 +1     2     1     3
  H(HETATM    9 2H2  HET A   1)   1.10676233 +1  109.6312058 +1 -121.7183124 +1     2     1     3
  H(HETATM   10 1H3  HET A   1)   1.10675132 +1  109.6727336 +1  -42.5238756 +1     3     2     1
  H(HETATM   11 2H3  HET A   1)   1.10568029 +1  110.2380400 +1   73.5295441 +1     3     2     1
  H(HETATM   12 1H4  HET A   1)   1.09559447 +1  111.4185987 +1  -59.4285235 +1     4     3     2
  H(HETATM   13 2H4  HET A   1)   1.09575242 +1  111.4427316 +1   60.6972867 +1     4     3     2
  H(HETATM   14 3H4  HET A   1)   1.09556307 +1  111.2460320 +1 -179.4279219 +1     4     3     2
 

          Geometry optimization using EF

          DIAGONAL MATRIX USED AS START HESSIAN

 CYCLE:     1 TIME:   0.000 TIME LEFT:  2.00D  GRAD.:     7.971 HEAT: -27.51734
 CYCLE:     2 TIME:   0.000 TIME LEFT:  2.00D  GRAD.:     4.049 HEAT: -27.70317
 CYCLE:     3 TIME:   0.016 TIME LEFT:  2.00D  GRAD.:     2.450 HEAT: -27.80665
 CYCLE:     4 TIME:   0.000 TIME LEFT:  2.00D  GRAD.:     1.826 HEAT: -27.81573
 CYCLE:     5 TIME:   0.000 TIME LEFT:  2.00D  GRAD.:     0.911 HEAT: -27.82500

     GRADIENT =  0.91052  IS LESS THAN CUTOFF =  1.00000



          VARIABLE        FUNCTION
 :       200.00000      -27.825001
*REMARK   3   HET = Not identified; C 4                            res:     1
 step=4.0 points=90 html
  Rotation barrier for C2-C3 in butane

  C(HETATM    1  C1  HET A   1)   0.00000000 +0    0.0000000 +0    0.0000000 +0
  C(HETATM    2  C2  HET A   1)   1.52886959 +1    0.0000000 +0    0.0000000 +0     1     0     0
  C(HETATM    3  C3  HET A   1)   1.53635459 +1  111.1951562 +1    0.0000000 +0     2     1     0
  C(HETATM    4  C4  HET A   1)   1.52903573 +1  111.1890393 +1 -160.0000000 -1     3     2     1
  H(HETATM    5 1H1  HET A   1)   1.09563489 +1  111.4008145 +1  -59.8568010 +1     1     2     3
  H(HETATM    6 2H1  HET A   1)   1.09561394 +1  111.4712559 +1   60.3082116 +1     1     2     3
  H(HETATM    7 3H1  HET A   1)   1.09552597 +1  111.2269942 +1 -179.7951584 +1     1     2     3
  H(HETATM    8 1H2  HET A   1)   1.10543346 +1  110.3150614 +1  122.3015409 +1     2     1     3
  H(HETATM    9 2H2  HET A   1)   1.10688146 +1  109.5309952 +1 -121.7310738 +1     2     1     3
  H(HETATM   10 1H3  HET A   1)   1.10695539 +1  109.6927594 +1  -38.6110595 +1     3     2     1
  H(HETATM   11 2H3  HET A   1)   1.10548029 +1  110.2547271 +1   77.4125736 +1     3     2     1
  H(HETATM   12 1H4  HET A   1)   1.09559886 +1  111.4150552 +1  -59.3490969 +1     4     3     2
  H(HETATM   13 2H4  HET A   1)   1.09574454 +1  111.4419980 +1   60.7900699 +1     4     3     2
  H(HETATM   14 3H4  HET A   1)   1.09556722 +1  111.2425600 +1 -179.3429436 +1     4     3     2
 

          Geometry optimization using EF

          DIAGONAL MATRIX USED AS START HESSIAN

 CYCLE:     1 TIME:   0.000 TIME LEFT:  2.00D  GRAD.:     7.993 HEAT: -27.36515
 CYCLE:     2 TIME:   0.000 TIME LEFT:  2.00D  GRAD.:     4.078 HEAT: -27.55320
 CYCLE:     3 TIME:   0.016 TIME LEFT:  2.00D  GRAD.:     2.478 HEAT: -27.65914
 CYCLE:     4 TIME:   0.000 TIME LEFT:  2.00D  GRAD.:     1.852 HEAT: -27.66852
 CYCLE:     5 TIME:   0.000 TIME LEFT:  2.00D  GRAD.:     0.980 HEAT: -27.67852

     GRADIENT =  0.97989  IS LESS THAN CUTOFF =  1.00000



          VARIABLE        FUNCTION
 :       204.00000      -27.678525
*REMARK   3   HET = Not identified; C 4                            res:     1
 step=4.0 points=90 html
  Rotation barrier for C2-C3 in butane

  C(HETATM    1  C1  HET A   1)   0.00000000 +0    0.0000000 +0    0.0000000 +0
  C(HETATM    2  C2  HET A   1)   1.52891428 +1    0.0000000 +0    0.0000000 +0     1     0     0
  C(HETATM    3  C3  HET A   1)   1.53681317 +1  111.2866512 +1    0.0000000 +0     2     1     0
  C(HETATM    4  C4  HET A   1)   1.52909004 +1  111.2640718 +1 -156.0000000 -1     3     2     1
  H(HETATM    5 1H1  HET A   1)   1.09563308 +1  111.4005770 +1  -59.6713998 +1     1     2     3
  H(HETATM    6 2H1  HET A   1)   1.09562305 +1  111.4666952 +1   60.5120911 +1     1     2     3
  H(HETATM    7 3H1  HET A   1)   1.09553358 +1  111.2245424 +1 -179.6018357 +1     1     2     3
  H(HETATM    8 1H2  HET A   1)   1.10531684 +1  110.3293161 +1  122.3756593 +1     2     1     3
  H(HETATM    9 2H2  HET A   1)   1.10698039 +1  109.4372615 +1 -121.7618149 +1     2     1     3
  H(HETATM   10 1H3  HET A   1)   1.10672180 +1  109.7624408 +1  -34.5512958 +1     3     2     1
  H(HETATM   11 2H3  HET A   1)   1.10568178 +1  110.2303304 +1   81.4448724 +1     3     2     1
  H(HETATM   12 1H4  HET A   1)   1.09556946 +1  111.4099309 +1  -59.2515974 +1     4     3     2
  H(HETATM   13 2H4  HET A   1)   1.09578158 +1  111.4426019 +1   60.9010167 +1     4     3     2
  H(HETATM   14 3H4  HET A   1)   1.09557572 +1  111.2410924 +1 -179.2497644 +1     4     3     2
 

          Geometry optimization using EF

          DIAGONAL MATRIX USED AS START HESSIAN

 CYCLE:     1 TIME:   0.000 TIME LEFT:  2.00D  GRAD.:     7.981 HEAT: -27.21683
 CYCLE:     2 TIME:   0.012 TIME LEFT:  2.00D  GRAD.:     4.041 HEAT: -27.40008
 CYCLE:     3 TIME:   0.000 TIME LEFT:  2.00D  GRAD.:     2.445 HEAT: -27.50231
 CYCLE:     4 TIME:   0.000 TIME LEFT:  2.00D  GRAD.:     1.809 HEAT: -27.51115
 CYCLE:     5 TIME:   0.000 TIME LEFT:  2.00D  GRAD.:     1.039 HEAT: -27.52077
 CYCLE:     6 TIME:   0.000 TIME LEFT:  2.00D  GRAD.:     0.744 HEAT: -27.52270

     GRADIENT =  0.74440  IS LESS THAN CUTOFF =  1.00000



          VARIABLE        FUNCTION
 :       208.00000      -27.522705
*REMARK   3   HET = Not identified; C 4                            res:     1
 step=4.0 points=90 html
  Rotation barrier for C2-C3 in butane

  C(HETATM    1  C1  HET A   1)   0.00000000 +0    0.0000000 +0    0.0000000 +0
  C(HETATM    2  C2  HET A   1)   1.52895808 +1    0.0000000 +0    0.0000000 +0     1     0     0
  C(HETATM    3  C3  HET A   1)   1.53724759 +1  111.3740128 +1    0.0000000 +0     2     1     0
  C(HETATM    4  C4  HET A   1)   1.52912335 +1  111.3359364 +1 -152.0000000 -1     3     2     1
  H(HETATM    5 1H1  HET A   1)   1.09562536 +1  111.4040331 +1  -59.4534528 +1     1     2     3
  H(HETATM    6 2H1  HET A   1)   1.09563497 +1  111.4549355 +1   60.7383601 +1     1     2     3
  H(HETATM    7 3H1  HET A   1)   1.09554151 +1  111.2227617 +1 -179.3828359 +1     1     2     3
  H(HETATM    8 1H2  HET A   1)   1.10523477 +1  110.3217045 +1  122.4390455 +1     2     1     3
  H(HETATM    9 2H2  HET A   1)   1.10709015 +1  109.3513562 +1 -121.8221932 +1     2     1     3
  H(HETATM   10 1H3  HET A   1)   1.10651164 +1  109.9284701 +1  -30.5723083 +1     3     2     1
  H(HETATM   11 2H3  HET A   1)   1.10583008 +1  110.1160538 +1   85.3882921 +1     3     2     1
  H(HETATM   12 1H4  HET A   1)   1.09554896 +1  111.4024692 +1  -59.1395611 +1     4     3     2
  H(HETATM   13 2H4  HET A   1)   1.09578014 +1  111.4436078 +1   61.0276300 +1     4     3     2
  H(HETATM   14 3H4  HET A   1)   1.09557204 +1  111.2391270 +1 -179.1225235 +1     4     3     2
 

          Geometry optimization using EF

          DIAGONAL MATRIX USED AS START HESSIAN

 CYCLE:     1 TIME:   0.020 TIME LEFT:  2.00D  GRAD.:     8.290 HEAT: -27.04090
 CYCLE:     2 TIME:   0.000 TIME LEFT:  2.00D  GRAD.:     4.178 HEAT: -27.23514
 CYCLE:     3 TIME:   0.000 TIME LEFT:  2.00D  GRAD.:     2.402 HEAT: -27.34127
 CYCLE:     4 TIME:   0.000 TIME LEFT:  2.00D  GRAD.:     1.737 HEAT: -27.34964
 CYCLE:     5 TIME:   0.000 TIME LEFT:  2.00D  GRAD.:     0.967 HEAT: -27.35860

     GRADIENT =  0.96709  IS LESS THAN CUTOFF =  1.00000



          VARIABLE        FUNCTION
 :       212.00000      -27.358598
*REMARK   3   HET = Not identified; C 4                            res:     1
 step=4.0 points=90 html
  Rotation barrier for C2-C3 in butane

  C(HETATM    1  C1  HET A   1)   0.00000000 +0    0.0000000 +0    0.0000000 +0
  C(HETATM    2  C2  HET A   1)   1.52901060 +1    0.0000000 +0    0.0000000 +0     1     0     0
  C(HETATM    3  C3  HET A   1)   1.53778320 +1  111.4596959 +1    0.0000000 +0     2     1     0
  C(HETATM    4  C4  HET A   1)   1.52918945 +1  111.4310190 +1 -148.0000000 -1     3     2     1
  H(HETATM    5 1H1  HET A   1)   1.09561777 +1  111.4087931 +1  -59.2938508 +1     1     2     3
  H(HETATM    6 2H1  HET A   1)   1.09564692 +1  111.4432894 +1   60.9196184 +1     1     2     3
  H(HETATM    7 3H1  HET A   1)   1.09554547 +1  111.2228619 +1 -179.2160271 +1     1     2     3
  H(HETATM    8 1H2  HET A   1)   1.10521370 +1  110.2972158 +1  122.4623684 +1     2     1     3
  H(HETATM    9 2H2  HET A   1)   1.10704995 +1  109.3029050 +1 -121.9016794 +1     2     1     3
  H(HETATM   10 1H3  HET A   1)   1.10662575 +1  109.8759051 +1  -26.5237991 +1     3     2     1
  H(HETATM   11 2H3  HET A   1)   1.10572815 +1  110.2116733 +1   89.3972464 +1     3     2     1
  H(HETATM   12 1H4  HET A   1)   1.09553392 +1  111.4135481 +1  -59.0513625 +1     4     3     2
  H(HETATM   13 2H4  HET A   1)   1.09581171 +1  111.4253943 +1   61.1281206 +1     4     3     2
  H(HETATM   14 3H4  HET A   1)   1.09558388 +1  111.2390626 +1 -179.0452826 +1     4     3     2
 

          Geometry optimization using EF

          DIAGONAL MATRIX USED AS START HESSIAN

 CYCLE:     1 TIME:   0.000 TIME LEFT:  2.00D  GRAD.:     8.063 HEAT: -26.88922
 CYCLE:     2 TIME:   0.000 TIME LEFT:  2.00D  GRAD.:     4.073 HEAT: -27.07476
 CYCLE:     3 TIME:   0.000 TIME LEFT:  2.00D  GRAD.:     2.474 HEAT: -27.17911
 CYCLE:     4 TIME:   0.000 TIME LEFT:  2.00D  GRAD.:     1.827 HEAT: -27.18832
 CYCLE:     5 TIME:   0.000 TIME LEFT:  2.00D  GRAD.:     0.969 HEAT: -27.19801

     GRADIENT =  0.96868  IS LESS THAN CUTOFF =  1.00000



          VARIABLE        FUNCTION
 :       216.00000      -27.198011
*REMARK   3   HET = Not identified; C 4                            res:     1
 step=4.0 points=90 html
  Rotation barrier for C2-C3 in butane

  C(HETATM    1  C1  HET A   1)   0.00000000 +0    0.0000000 +0    0.0000000 +0
  C(HETATM    2  C2  HET A   1)   1.52906664 +1    0.0000000 +0    0.0000000 +0     1     0     0
  C(HETATM    3  C3  HET A   1)   1.53826904 +1  111.5500375 +1    0.0000000 +0     2     1     0
  C(HETATM    4  C4  HET A   1)   1.52925049 +1  111.5152954 +1 -144.0000000 -1     3     2     1
  H(HETATM    5 1H1  HET A   1)   1.09560587 +1  111.4168104 +1  -59.1536557 +1     1     2     3
  H(HETATM    6 2H1  HET A   1)   1.09566119 +1  111.4288730 +1   61.0725545 +1     1     2     3
  H(HETATM    7 3H1  HET A   1)   1.09555472 +1  111.2218971 +1 -179.0702705 +1     1     2     3
  H(HETATM    8 1H2  HET A   1)   1.10523107 +1  110.2503100 +1  122.4760309 +1     2     1     3
  H(HETATM    9 2H2  HET A   1)   1.10703300 +1  109.2665502 +1 -122.0037188 +1     2     1     3
  H(HETATM   10 1H3  HET A   1)   1.10664060 +1  109.9238418 +1  -22.4542421 +1     3     2     1
  H(HETATM   11 2H3  HET A   1)   1.10570772 +1  110.2085317 +1   93.4258076 +1     3     2     1
  H(HETATM   12 1H4  HET A   1)   1.09552738 +1  111.4198182 +1  -58.9921216 +1     4     3     2
  H(HETATM   13 2H4  HET A   1)   1.09581884 +1  111.4110353 +1   61.1984367 +1     4     3     2
  H(HETATM   14 3H4  HET A   1)   1.09558677 +1  111.2389172 +1 -178.9838137 +1     4     3     2
 

          Geometry optimization using EF

          DIAGONAL MATRIX USED AS START HESSIAN

 CYCLE:     1 TIME:   0.016 TIME LEFT:  2.00D  GRAD.:     8.005 HEAT: -26.73896
 CYCLE:     2 TIME:   0.000 TIME LEFT:  2.00D  GRAD.:     4.058 HEAT: -26.92281
 CYCLE:     3 TIME:   0.000 TIME LEFT:  2.00D  GRAD.:     2.479 HEAT: -27.02742
 CYCLE:     4 TIME:   0.000 TIME LEFT:  2.00D  GRAD.:     1.836 HEAT: -27.03679
 CYCLE:     5 TIME:   0.000 TIME LEFT:  2.00D  GRAD.:     0.971 HEAT: -27.04654

     GRADIENT =  0.97114  IS LESS THAN CUTOFF =  1.00000



          VARIABLE        FUNCTION
 :       220.00000      -27.046536
*REMARK   3   HET = Not identified; C 4                            res:     1
 step=4.0 points=90 html
  Rotation barrier for C2-C3 in butane

  C(HETATM    1  C1  HET A   1)   0.00000000 +0    0.0000000 +0    0.0000000 +0
  C(HETATM    2  C2  HET A   1)   1.52911625 +1    0.0000000 +0    0.0000000 +0     1     0     0
  C(HETATM    3  C3  HET A   1)   1.53871405 +1  111.6337813 +1    0.0000000 +0     2     1     0
  C(HETATM    4  C4  HET A   1)   1.52930815 +1  111.5934649 +1 -140.0000000 -1     3     2     1
  H(HETATM    5 1H1  HET A   1)   1.09558727 +1  111.4275402 +1  -59.0442037 +1     1     2     3
  H(HETATM    6 2H1  HET A   1)   1.09567984 +1  111.4102512 +1   61.1894766 +1     1     2     3
  H(HETATM    7 3H1  HET A   1)   1.09555751 +1  111.2219149 +1 -178.9594757 +1     1     2     3
  H(HETATM    8 1H2  HET A   1)   1.10527439 +1  110.1882697 +1  122.4691265 +1     2     1     3
  H(HETATM    9 2H2  HET A   1)   1.10697766 +1  109.2520454 +1 -122.1187980 +1     2     1     3
  H(HETATM   10 1H3  HET A   1)   1.10655931 +1  109.9797937 +1  -18.3658273 +1     3     2     1
  H(HETATM   11 2H3  HET A   1)   1.10576894 +1  110.1965927 +1   97.4752489 +1     3     2     1
  H(HETATM   12 1H4  HET A   1)   1.09550650 +1  111.4284929 +1  -58.9606041 +1     4     3     2
  H(HETATM   13 2H4  HET A   1)   1.09583681 +1  111.3930579 +1   61.2370667 +1     4     3     2
  H(HETATM   14 3H4  HET A   1)   1.09558327 +1  111.2401508 +1 -178.9542539 +1     4     3     2
 

          Geometry optimization using EF

          DIAGONAL MATRIX USED AS START HESSIAN

 CYCLE:     1 TIME:   0.000 TIME LEFT:  2.00D  GRAD.:     7.991 HEAT: -26.60273
 CYCLE:     2 TIME:   0.016 TIME LEFT:  2.00D  GRAD.:     4.069 HEAT: -26.78617
 CYCLE:     3 TIME:   0.000 TIME LEFT:  2.00D  GRAD.:     2.515 HEAT: -26.89164
 CYCLE:     4 TIME:   0.000 TIME LEFT:  2.00D  GRAD.:     1.855 HEAT: -26.90107
 CYCLE:     5 TIME:   0.000 TIME LEFT:  2.00D  GRAD.:     0.952 HEAT: -26.91085

     GRADIENT =  0.95168  IS LESS THAN CUTOFF =  1.00000



          VARIABLE        FUNCTION
 :       224.00000      -26.910848
*REMARK   3   HET = Not identified; C 4                            res:     1
 step=4.0 points=90 html
  Rotation barrier for C2-C3 in butane

  C(HETATM    1  C1  HET A   1)   0.00000000 +0    0.0000000 +0    0.0000000 +0
  C(HETATM    2  C2  HET A   1)   1.52915937 +1    0.0000000 +0    0.0000000 +0     1     0     0
  C(HETATM    3  C3  HET A   1)   1.53909596 +1  111.7093384 +1    0.0000000 +0     2     1     0
  C(HETATM    4  C4  HET A   1)   1.52935939 +1  111.6619680 +1 -136.0000000 -1     3     2     1
  H(HETATM    5 1H1  HET A   1)   1.09557080 +1  111.4393995 +1  -58.9737892 +1     1     2     3
  H(HETATM    6 2H1  HET A   1)   1.09569958 +1  111.3884776 +1   61.2620002 +1     1     2     3
  H(HETATM    7 3H1  HET A   1)   1.09555559 +1  111.2240854 +1 -178.8912663 +1     1     2     3
  H(HETATM    8 1H2  HET A   1)   1.10535846 +1  110.1139707 +1  122.4410942 +1     2     1     3
  H(HETATM    9 2H2  HET A   1)   1.10689435 +1  109.2595899 +1 -122.2440801 +1     2     1     3
  H(HETATM   10 1H3  HET A   1)   1.10649136 +1  110.0297832 +1  -14.2805042 +1     3     2     1
  H(HETATM   11 2H3  HET A   1)   1.10582018 +1  110.1831539 +1  101.5207230 +1     3     2     1
  H(HETATM   12 1H4  HET A   1)   1.09548206 +1  111.4385619 +1  -58.9629761 +1     4     3     2
  H(HETATM   13 2H4  HET A   1)   1.09585128 +1  111.3716759 +1   61.2378122 +1     4     3     2
  H(HETATM   14 3H4  HET A   1)   1.09557948 +1  111.2430088 +1 -178.9580264 +1     4     3     2
 

          Geometry optimization using EF

          DIAGONAL MATRIX USED AS START HESSIAN

 CYCLE:     1 TIME:   0.000 TIME LEFT:  2.00D  GRAD.:     8.004 HEAT: -26.48448
 CYCLE:     2 TIME:   0.000 TIME LEFT:  2.00D  GRAD.:     4.090 HEAT: -26.66950
 CYCLE:     3 TIME:   0.000 TIME LEFT:  2.00D  GRAD.:     2.532 HEAT: -26.77706
 CYCLE:     4 TIME:   0.012 TIME LEFT:  2.00D  GRAD.:     1.862 HEAT: -26.78670
 CYCLE:     5 TIME:   0.000 TIME LEFT:  2.00D  GRAD.:     0.978 HEAT: -26.79675

     GRADIENT =  0.97773  IS LESS THAN CUTOFF =  1.00000



          VARIABLE        FUNCTION
 :       228.00000      -26.796760
*REMARK   3   HET = Not identified; C 4                            res:     1
 step=4.0 points=90 html
  Rotation barrier for C2-C3 in butane

  C(HETATM    1  C1  HET A   1)   0.00000000 +0    0.0000000 +0    0.0000000 +0
  C(HETATM    2  C2  HET A   1)   1.52919252 +1    0.0000000 +0    0.0000000 +0     1     0     0
  C(HETATM    3  C3  HET A   1)   1.53940707 +1  111.7723366 +1    0.0000000 +0     2     1     0
  C(HETATM    4  C4  HET A   1)   1.52939336 +1  111.7211984 +1 -132.0000000 -1     3     2     1
  H(HETATM    5 1H1  HET A   1)   1.09555275 +1  111.4528248 +1  -58.9429970 +1     1     2     3
  H(HETATM    6 2H1  HET A   1)   1.09572636 +1  111.3641981 +1   61.2895253 +1     1     2     3
  H(HETATM    7 3H1  HET A   1)   1.09554584 +1  111.2264748 +1 -178.8662607 +1     1     2     3
  H(HETATM    8 1H2  HET A   1)   1.10547475 +1  110.0270180 +1  122.3927503 +1     2     1     3
  H(HETATM    9 2H2  HET A   1)   1.10677777 +1  109.2902260 +1 -122.3736509 +1     2     1     3
  H(HETATM   10 1H3  HET A   1)   1.10626685 +1  110.0884928 +1  -10.1323474 +1     3     2     1
  H(HETATM   11 2H3  HET A   1)   1.10602478 +1  110.1546763 +1  105.6359077 +1     3     2     1
  H(HETATM   12 1H4  HET A   1)   1.09544646 +1  111.4498129 +1  -58.9981172 +1     4     3     2
  H(HETATM   13 2H4  HET A   1)   1.09588357 +1  111.3485988 +1   61.1995523 +1     4     3     2
  H(HETATM   14 3H4  HET A   1)   1.09556674 +1  111.2468152 +1 -179.0019940 +1     4     3     2
 

          Geometry optimization using EF

          DIAGONAL MATRIX USED AS START HESSIAN

 CYCLE:     1 TIME:   0.000 TIME LEFT:  2.00D  GRAD.:     7.998 HEAT: -26.39906
 CYCLE:     2 TIME:   0.000 TIME LEFT:  2.00D  GRAD.:     4.083 HEAT: -26.58284
 CYCLE:     3 TIME:   0.000 TIME LEFT:  2.00D  GRAD.:     2.527 HEAT: -26.69000
 CYCLE:     4 TIME:   0.000 TIME LEFT:  2.00D  GRAD.:     1.857 HEAT: -26.69960
 CYCLE:     5 TIME:   0.020 TIME LEFT:  2.00D  GRAD.:     0.977 HEAT: -26.70962

     GRADIENT =  0.97749  IS LESS THAN CUTOFF =  1.00000



          VARIABLE        FUNCTION
 :       232.00000      -26.709629
*REMARK   3   HET = Not identified; C 4                            res:     1
 step=4.0 points=90 html
  Rotation barrier for C2-C3 in butane

  C(HETATM    1  C1  HET A   1)   0.00000000 +0    0.0000000 +0    0.0000000 +0
  C(HETATM    2  C2  HET A   1)   1.52922293 +1    0.0000000 +0    0.0000000 +0     1     0     0
  C(HETATM    3  C3  HET A   1)   1.53962332 +1  111.8221452 +1    0.0000000 +0     2     1     0
  C(HETATM    4  C4  HET A   1)   1.52942551 +1  111.7649560 +1 -128.0000000 -1     3     2     1
  H(HETATM    5 1H1  HET A   1)   1.09552892 +1  111.4673087 +1  -58.9548774 +1     1     2     3
  H(HETATM    6 2H1  HET A   1)   1.09575102 +1  111.3381480 +1   61.2700001 +1     1     2     3
  H(HETATM    7 3H1  HET A   1)   1.09553810 +1  111.2307286 +1 -178.8871111 +1     1     2     3
  H(HETATM    8 1H2  HET A   1)   1.10561594 +1  109.9353185 +1  122.3258790 +1     2     1     3
  H(HETATM    9 2H2  HET A   1)   1.10664328 +1  109.3411770 +1 -122.5027892 +1     2     1     3
  H(HETATM   10 1H3  HET A   1)   1.10609866 +1  110.1359810 +1   -5.9934170 +1     3     2     1
  H(HETATM   11 2H3  HET A   1)   1.10618424 +1  110.1267239 +1  109.7457998 +1     3     2     1
  H(HETATM   12 1H4  HET A   1)   1.09541527 +1  111.4620204 +1  -59.0699079 +1     4     3     2
  H(HETATM   13 2H4  HET A   1)   1.09590574 +1  111.3227833 +1   61.1204668 +1     4     3     2
  H(HETATM   14 3H4  HET A   1)   1.09555208 +1  111.2521971 +1 -179.0830726 +1     4     3     2
 

          Geometry optimization using EF

          DIAGONAL MATRIX USED AS START HESSIAN

 CYCLE:     1 TIME:   0.000 TIME LEFT:  2.00D  GRAD.:     7.997 HEAT: -26.34166
 CYCLE:     2 TIME:   0.000 TIME LEFT:  2.00D  GRAD.:     4.092 HEAT: -26.52555
 CYCLE:     3 TIME:   0.000 TIME LEFT:  2.00D  GRAD.:     2.540 HEAT: -26.63348
 CYCLE:     4 TIME:   0.000 TIME LEFT:  2.00D  GRAD.:     1.861 HEAT: -26.64308
 CYCLE:     5 TIME:   0.000 TIME LEFT:  2.00D  GRAD.:     0.989 HEAT: -26.65320

     GRADIENT =  0.98891  IS LESS THAN CUTOFF =  1.00000



          VARIABLE        FUNCTION
 :       236.00000      -26.653202
*REMARK   3   HET = Not identified; C 4                            res:     1
 step=4.0 points=90 html
  Rotation barrier for C2-C3 in butane

  C(HETATM    1  C1  HET A   1)   0.00000000 +0    0.0000000 +0    0.0000000 +0
  C(HETATM    2  C2  HET A   1)   1.52924240 +1    0.0000000 +0    0.0000000 +0     1     0     0
  C(HETATM    3  C3  HET A   1)   1.53974298 +1  111.8564886 +1    0.0000000 +0     2     1     0
  C(HETATM    4  C4  HET A   1)   1.52944795 +1  111.7953903 +1 -124.0000000 -1     3     2     1
  H(HETATM    5 1H1  HET A   1)   1.09550319 +1  111.4817282 +1  -59.0108348 +1     1     2     3
  H(HETATM    6 2H1  HET A   1)   1.09578105 +1  111.3108477 +1   61.2006045 +1     1     2     3
  H(HETATM    7 3H1  HET A   1)   1.09552317 +1  111.2361311 +1 -178.9548918 +1     1     2     3
  H(HETATM    8 1H2  HET A   1)   1.10578243 +1  109.8402723 +1  122.2432138 +1     2     1     3
  H(HETATM    9 2H2  HET A   1)   1.10649637 +1  109.4092532 +1 -122.6268341 +1     2     1     3
  H(HETATM   10 1H3  HET A   1)   1.10588299 +1  110.1788894 +1   -1.8411032 +1     3     2     1
  H(HETATM   11 2H3  HET A   1)   1.10639109 +1  110.0938675 +1  113.8768380 +1     3     2     1
  H(HETATM   12 1H4  HET A   1)   1.09538320 +1  111.4733772 +1  -59.1783217 +1     4     3     2
  H(HETATM   13 2H4  HET A   1)   1.09593772 +1  111.2963671 +1   60.9985926 +1     4     3     2
  H(HETATM   14 3H4  HET A   1)   1.09552816 +1  111.2592815 +1 -179.2051273 +1     4     3     2
 

          Geometry optimization using EF

          DIAGONAL MATRIX USED AS START HESSIAN

 CYCLE:     1 TIME:   0.000 TIME LEFT:  2.00D  GRAD.:     8.002 HEAT: -26.31839
 CYCLE:     2 TIME:   0.000 TIME LEFT:  2.00D  GRAD.:     4.088 HEAT: -26.50205
 CYCLE:     3 TIME:   0.000 TIME LEFT:  2.00D  GRAD.:     2.529 HEAT: -26.60998
 CYCLE:     4 TIME:   0.000 TIME LEFT:  2.00D  GRAD.:     1.863 HEAT: -26.61965
 CYCLE:     5 TIME:   0.012 TIME LEFT:  2.00D  GRAD.:     0.997 HEAT: -26.62972

     GRADIENT =  0.99689  IS LESS THAN CUTOFF =  1.00000



          VARIABLE        FUNCTION
 :       240.00000      -26.629728
*REMARK   3   HET = Not identified; C 4                            res:     1
 step=4.0 points=90 html
  Rotation barrier for C2-C3 in butane

  C(HETATM    1  C1  HET A   1)   0.00000000 +0    0.0000000 +0    0.0000000 +0
  C(HETATM    2  C2  HET A   1)   1.52925096 +1    0.0000000 +0    0.0000000 +0     1     0     0
  C(HETATM    3  C3  HET A   1)   1.53975401 +1  111.8750790 +1    0.0000000 +0     2     1     0
  C(HETATM    4  C4  HET A   1)   1.52946206 +1  111.8102714 +1 -120.0000000 -1     3     2     1
  H(HETATM    5 1H1  HET A   1)   1.09548420 +1  111.4952657 +1  -59.1058679 +1     1     2     3
  H(HETATM    6 2H1  HET A   1)   1.09581240 +1  111.2840352 +1   61.0863799 +1     1     2     3
  H(HETATM    7 3H1  HET A   1)   1.09549812 +1  111.2429455 +1 -179.0652812 +1     1     2     3
  H(HETATM    8 1H2  HET A   1)   1.10595969 +1  109.7484104 +1  122.1490879 +1     2     1     3
  H(HETATM    9 2H2  HET A   1)   1.10634449 +1  109.4919505 +1 -122.7378517 +1     2     1     3
  H(HETATM   10 1H3  HET A   1)   1.10572359 +1  110.2053825 +1    2.3086646 +1     3     2     1
  H(HETATM   11 2H3  HET A   1)   1.10655665 +1  110.0644816 +1  118.0124758 +1     3     2     1
  H(HETATM   12 1H4  HET A   1)   1.09535461 +1  111.4853656 +1  -59.3199458 +1     4     3     2
  H(HETATM   13 2H4  HET A   1)   1.09596372 +1  111.2688105 +1   60.8392775 +1     4     3     2
  H(HETATM   14 3H4  HET A   1)   1.09550418 +1  111.2669709 +1 -179.3618519 +1     4     3     2
 

          Geometry optimization using EF

          DIAGONAL MATRIX USED AS START HESSIAN

 CYCLE:     1 TIME:   0.000 TIME LEFT:  2.00D  GRAD.:     7.978 HEAT: -26.32933
 CYCLE:     2 TIME:   0.000 TIME LEFT:  2.00D  GRAD.:     4.071 HEAT: -26.51221
 CYCLE:     3 TIME:   0.000 TIME LEFT:  2.00D  GRAD.:     2.506 HEAT: -26.61990
 CYCLE:     4 TIME:   0.000 TIME LEFT:  2.00D  GRAD.:     1.854 HEAT: -26.62965
 CYCLE:     5 TIME:   0.000 TIME LEFT:  2.00D  GRAD.:     1.039 HEAT: -26.63965
 CYCLE:     6 TIME:   0.000 TIME LEFT:  2.00D  GRAD.:     0.728 HEAT: -26.64172

     GRADIENT =  0.72809  IS LESS THAN CUTOFF =  1.00000



          VARIABLE        FUNCTION
 :       244.00000      -26.641724
*REMARK   3   HET = Not identified; C 4                            res:     1
 step=4.0 points=90 html
  Rotation barrier for C2-C3 in butane

  C(HETATM    1  C1  HET A   1)   0.00000000 +0    0.0000000 +0    0.0000000 +0
  C(HETATM    2  C2  HET A   1)   1.52926241 +1    0.0000000 +0    0.0000000 +0     1     0     0
  C(HETATM    3  C3  HET A   1)   1.53964778 +1  111.8633688 +1    0.0000000 +0     2     1     0
  C(HETATM    4  C4  HET A   1)   1.52945425 +1  111.8083691 +1 -116.0000000 -1     3     2     1
  H(HETATM    5 1H1  HET A   1)   1.09545517 +1  111.5072024 +1  -59.2503176 +1     1     2     3
  H(HETATM    6 2H1  HET A   1)   1.09584945 +1  111.2554381 +1   60.9108157 +1     1     2     3
  H(HETATM    7 3H1  HET A   1)   1.09546482 +1  111.2522014 +1 -179.2351445 +1     1     2     3
  H(HETATM    8 1H2  HET A   1)   1.10615097 +1  109.6562399 +1  122.0481797 +1     2     1     3
  H(HETATM    9 2H2  HET A   1)   1.10617993 +1  109.5882742 +1 -122.8370405 +1     2     1     3
  H(HETATM   10 1H3  HET A   1)   1.10556690 +1  110.3021145 +1    6.3620102 +1     3     2     1
  H(HETATM   11 2H3  HET A   1)   1.10671589 +1  109.9499270 +1  122.0561230 +1     3     2     1
  H(HETATM   12 1H4  HET A   1)   1.09532988 +1  111.4912731 +1  -59.5119001 +1     4     3     2
  H(HETATM   13 2H4  HET A   1)   1.09597623 +1  111.2459691 +1   60.6253289 +1     4     3     2
  H(HETATM   14 3H4  HET A   1)   1.09547123 +1  111.2744436 +1 -179.5559435 +1     4     3     2
 

          Geometry optimization using EF

          DIAGONAL MATRIX USED AS START HESSIAN

 CYCLE:     1 TIME:   0.000 TIME LEFT:  2.00D  GRAD.:     8.255 HEAT: -26.35340
 CYCLE:     2 TIME:   0.000 TIME LEFT:  2.00D  GRAD.:     4.228 HEAT: -26.54914
 CYCLE:     3 TIME:   0.000 TIME LEFT:  2.00D  GRAD.:     2.499 HEAT: -26.66298
 CYCLE:     4 TIME:   0.000 TIME LEFT:  2.00D  GRAD.:     1.812 HEAT: -26.67238
 CYCLE:     5 TIME:   0.000 TIME LEFT:  2.00D  GRAD.:     1.040 HEAT: -26.68220
 CYCLE:     6 TIME:   0.000 TIME LEFT:  2.00D  GRAD.:     0.745 HEAT: -26.68418

     GRADIENT =  0.74478  IS LESS THAN CUTOFF =  1.00000



          VARIABLE        FUNCTION
 :       248.00000      -26.684180
*REMARK   3   HET = Not identified; C 4                            res:     1
 step=4.0 points=90 html
  Rotation barrier for C2-C3 in butane

  C(HETATM    1  C1  HET A   1)   0.00000000 +0    0.0000000 +0    0.0000000 +0
  C(HETATM    2  C2  HET A   1)   1.52926083 +1    0.0000000 +0    0.0000000 +0     1     0     0
  C(HETATM    3  C3  HET A   1)   1.53946186 +1  111.8479869 +1    0.0000000 +0     2     1     0
  C(HETATM    4  C4  HET A   1)   1.52945427 +1  111.7945542 +1 -112.0000000 -1     3     2     1
  H(HETATM    5 1H1  HET A   1)   1.09543862 +1  111.5165009 +1  -59.4267124 +1     1     2     3
  H(HETATM    6 2H1  HET A   1)   1.09588376 +1  111.2309144 +1   60.7048452 +1     1     2     3
  H(HETATM    7 3H1  HET A   1)   1.09543070 +1  111.2620318 +1 -179.4321100 +1     1     2     3
  H(HETATM    8 1H2  HET A   1)   1.10633106 +1  109.5829103 +1  121.9468933 +1     2     1     3
  H(HETATM    9 2H2  HET A   1)   1.10603516 +1  109.6872284 +1 -122.9069816 +1     2     1     3
  H(HETATM   10 1H3  HET A   1)   1.10541257 +1  110.3015288 +1   10.4629831 +1     3     2     1
  H(HETATM   11 2H3  HET A   1)   1.10689012 +1  109.9228351 +1  126.1598892 +1     3     2     1
  H(HETATM   12 1H4  HET A   1)   1.09529978 +1  111.5012200 +1  -59.7212124 +1     4     3     2
  H(HETATM   13 2H4  HET A   1)   1.09601289 +1  111.2205438 +1   60.3885597 +1     4     3     2
  H(HETATM   14 3H4  HET A   1)   1.09543740 +1  111.2837161 +1 -179.7847122 +1     4     3     2
 

          Geometry optimization using EF

          DIAGONAL MATRIX USED AS START HESSIAN

 CYCLE:     1 TIME:   0.000 TIME LEFT:  2.00D  GRAD.:     8.289 HEAT: -26.42232
 CYCLE:     2 TIME:   0.000 TIME LEFT:  2.00D  GRAD.:     4.251 HEAT: -26.61968
 CYCLE:     3 TIME:   0.000 TIME LEFT:  2.00D  GRAD.:     2.514 HEAT: -26.73438
 CYCLE:     4 TIME:   0.000 TIME LEFT:  2.00D  GRAD.:     1.809 HEAT: -26.74368
 CYCLE:     5 TIME:   0.000 TIME LEFT:  2.00D  GRAD.:     1.095 HEAT: -26.75349
 CYCLE:     6 TIME:   0.000 TIME LEFT:  2.00D  GRAD.:     0.756 HEAT: -26.75562

     GRADIENT =  0.75628  IS LESS THAN CUTOFF =  1.00000



          VARIABLE        FUNCTION
 :       252.00000      -26.755619
*REMARK   3   HET = Not identified; C 4                            res:     1
 step=4.0 points=90 html
  Rotation barrier for C2-C3 in butane

  C(HETATM    1  C1  HET A   1)   0.00000000 +0    0.0000000 +0    0.0000000 +0
  C(HETATM    2  C2  HET A   1)   1.52925295 +1    0.0000000 +0    0.0000000 +0     1     0     0
  C(HETATM    3  C3  HET A   1)   1.53917387 +1  111.8231158 +1    0.0000000 +0     2     1     0
  C(HETATM    4  C4  HET A   1)   1.52944699 +1  111.7708714 +1 -108.0000000 -1     3     2     1
  H(HETATM    5 1H1  HET A   1)   1.09541886 +1  111.5232825 +1  -59.6292982 +1     1     2     3
  H(HETATM    6 2H1  HET A   1)   1.09591350 +1  111.2106744 +1   60.4710011 +1     1     2     3
  H(HETATM    7 3H1  HET A   1)   1.09539893 +1  111.2694632 +1 -179.6567826 +1     1     2     3
  H(HETATM    8 1H2  HET A   1)   1.10649860 +1  109.5220533 +1  121.8484866 +1     2     1     3
  H(HETATM    9 2H2  HET A   1)   1.10591337 +1  109.7858093 +1 -122.9524497 +1     2     1     3
  H(HETATM   10 1H3  HET A   1)   1.10527177 +1  110.2934359 +1   14.5654686 +1     3     2     1
  H(HETATM   11 2H3  HET A   1)   1.10707301 +1  109.8908688 +1  130.2715222 +1     3     2     1
  H(HETATM   12 1H4  HET A   1)   1.09527776 +1  111.5072007 +1  -59.9500672 +1     4     3     2
  H(HETATM   13 2H4  HET A   1)   1.09604062 +1  111.2004092 +1   60.1286506 +1     4     3     2
  H(HETATM   14 3H4  HET A   1)   1.09540274 +1  111.2915514 +1  179.9657985 +1     4     3     2
 

          Geometry optimization using EF

          DIAGONAL MATRIX USED AS START HESSIAN

 CYCLE:     1 TIME:   0.020 TIME LEFT:  2.00D  GRAD.:     8.297 HEAT: -26.51843
 CYCLE:     2 TIME:   0.000 TIME LEFT:  2.00D  GRAD.:     4.236 HEAT: -26.71584
 CYCLE:     3 TIME:   0.000 TIME LEFT:  2.00D  GRAD.:     2.476 HEAT: -26.82977
 CYCLE:     4 TIME:   0.000 TIME LEFT:  2.00D  GRAD.:     1.789 HEAT: -26.83905
 CYCLE:     5 TIME:   0.000 TIME LEFT:  2.00D  GRAD.:     1.048 HEAT: -26.84880
 CYCLE:     6 TIME:   0.000 TIME LEFT:  2.00D  GRAD.:     0.758 HEAT: -26.85083

     GRADIENT =  0.75784  IS LESS THAN CUTOFF =  1.00000



          VARIABLE        FUNCTION
 :       256.00000      -26.850828
*REMARK   3   HET = Not identified; C 4                            res:     1
 step=4.0 points=90 html
  Rotation barrier for C2-C3 in butane

  C(HETATM    1  C1  HET A   1)   0.00000000 +0    0.0000000 +0    0.0000000 +0
  C(HETATM    2  C2  HET A   1)   1.52924378 +1    0.0000000 +0    0.0000000 +0     1     0     0
  C(HETATM    3  C3  HET A   1)   1.53881287 +1  111.7919597 +1    0.0000000 +0     2     1     0
  C(HETATM    4  C4  HET A   1)   1.52943629 +1  111.7386859 +1 -104.0000000 -1     3     2     1
  H(HETATM    5 1H1  HET A   1)   1.09540788 +1  111.5278401 +1  -59.8500750 +1     1     2     3
  H(HETATM    6 2H1  HET A   1)   1.09593952 +1  111.1968725 +1   60.2180414 +1     1     2     3
  H(HETATM    7 3H1  HET A   1)   1.09536968 +1  111.2771852 +1 -179.8976500 +1     1     2     3
  H(HETATM    8 1H2  HET A   1)   1.10665103 +1  109.4756676 +1  121.7608493 +1     2     1     3
  H(HETATM    9 2H2  HET A   1)   1.10581661 +1  109.8768841 +1 -122.9703397 +1     2     1     3
  H(HETATM   10 1H3  HET A   1)   1.10517399 +1  110.2699367 +1   18.6475812 +1     3     2     1
  H(HETATM   11 2H3  HET A   1)   1.10721348 +1  109.8636144 +1  134.3703683 +1     3     2     1
  H(HETATM   12 1H4  HET A   1)   1.09526308 +1  111.5107206 +1  -60.1877596 +1     4     3     2
  H(HETATM   13 2H4  HET A   1)   1.09606459 +1  111.1841507 +1   59.8580263 +1     4     3     2
  H(HETATM   14 3H4  HET A   1)   1.09536507 +1  111.3008822 +1  179.7070593 +1     4     3     2
 

          Geometry optimization using EF

          DIAGONAL MATRIX USED AS START HESSIAN

 CYCLE:     1 TIME:   0.016 TIME LEFT:  2.00D  GRAD.:     8.285 HEAT: -26.63293
 CYCLE:     2 TIME:   0.000 TIME LEFT:  2.00D  GRAD.:     4.223 HEAT: -26.82962
 CYCLE:     3 TIME:   0.000 TIME LEFT:  2.00D  GRAD.:     2.451 HEAT: -26.94238
 CYCLE:     4 TIME:   0.000 TIME LEFT:  2.00D  GRAD.:     1.764 HEAT: -26.95141
 CYCLE:     5 TIME:   0.000 TIME LEFT:  2.00D  GRAD.:     1.036 HEAT: -26.96099
 CYCLE:     6 TIME:   0.000 TIME LEFT:  2.00D  GRAD.:     0.762 HEAT: -26.96297

     GRADIENT =  0.76172  IS LESS THAN CUTOFF =  1.00000



          VARIABLE        FUNCTION
 :       260.00000      -26.962976
*REMARK   3   HET = Not identified; C 4                            res:     1
 step=4.0 points=90 html
  Rotation barrier for C2-C3 in butane

  C(HETATM    1  C1  HET A   1)   0.00000000 +0    0.0000000 +0    0.0000000 +0
  C(HETATM    2  C2  HET A   1)   1.52923402 +1    0.0000000 +0    0.0000000 +0     1     0     0
  C(HETATM    3  C3  HET A   1)   1.53840232 +1  111.7590659 +1    0.0000000 +0     2     1     0
  C(HETATM    4  C4  HET A   1)   1.52942238 +1  111.7069243 +1 -100.0000000 -1     3     2     1
  H(HETATM    5 1H1  HET A   1)   1.09540109 +1  111.5274228 +1  -60.0776137 +1     1     2     3
  H(HETATM    6 2H1  HET A   1)   1.09595811 +1  111.1894855 +1   59.9553056 +1     1     2     3
  H(HETATM    7 3H1  HET A   1)   1.09533587 +1  111.2838747 +1  179.8547776 +1     1     2     3
  H(HETATM    8 1H2  HET A   1)   1.10677860 +1  109.4466830 +1  121.6855507 +1     2     1     3
  H(HETATM    9 2H2  HET A   1)   1.10575519 +1  109.9574971 +1 -122.9609060 +1     2     1     3
  H(HETATM   10 1H3  HET A   1)   1.10508045 +1  110.2383425 +1   22.7120336 +1     3     2     1
  H(HETATM   11 2H3  HET A   1)   1.10736176 +1  109.8313654 +1  138.4555686 +1     3     2     1
  H(HETATM   12 1H4  HET A   1)   1.09525189 +1  111.5096679 +1  -60.4286347 +1     4     3     2
  H(HETATM   13 2H4  HET A   1)   1.09608572 +1  111.1763895 +1   59.5840120 +1     4     3     2
  H(HETATM   14 3H4  HET A   1)   1.09532978 +1  111.3078428 +1  179.4459933 +1     4     3     2
 

          Geometry optimization using EF

          DIAGONAL MATRIX USED AS START HESSIAN

 CYCLE:     1 TIME:   0.012 TIME LEFT:  2.00D  GRAD.:     8.278 HEAT: -26.75729
 CYCLE:     2 TIME:   0.000 TIME LEFT:  2.00D  GRAD.:     4.203 HEAT: -26.95290
 CYCLE:     3 TIME:   0.000 TIME LEFT:  2.00D  GRAD.:     2.410 HEAT: -27.06379
 CYCLE:     4 TIME:   0.000 TIME LEFT:  2.00D  GRAD.:     1.730 HEAT: -27.07252
 CYCLE:     5 TIME:   0.000 TIME LEFT:  2.00D  GRAD.:     1.017 HEAT: -27.08166
 CYCLE:     6 TIME:   0.000 TIME LEFT:  2.00D  GRAD.:     0.741 HEAT: -27.08353

     GRADIENT =  0.74073  IS LESS THAN CUTOFF =  1.00000



          VARIABLE        FUNCTION
 :       264.00000      -27.083535
*REMARK   3   HET = Not identified; C 4                            res:     1
 step=4.0 points=90 html
  Rotation barrier for C2-C3 in butane

  C(HETATM    1  C1  HET A   1)   0.00000000 +0    0.0000000 +0    0.0000000 +0
  C(HETATM    2  C2  HET A   1)   1.52922084 +1    0.0000000 +0    0.0000000 +0     1     0     0
  C(HETATM    3  C3  HET A   1)   1.53796287 +1  111.7335221 +1    0.0000000 +0     2     1     0
  C(HETATM    4  C4  HET A   1)   1.52940489 +1  111.6829462 +1  -96.0000000 -1     3     2     1
  H(HETATM    5 1H1  HET A   1)   1.09540443 +1  111.5225439 +1  -60.2952815 +1     1     2     3
  H(HETATM    6 2H1  HET A   1)   1.09596542 +1  111.1931324 +1   59.7059717 +1     1     2     3
  H(HETATM    7 3H1  HET A   1)   1.09530526 +1  111.2878898 +1  179.6204772 +1     1     2     3
  H(HETATM    8 1H2  HET A   1)   1.10687923 +1  109.4344100 +1  121.6322447 +1     2     1     3
  H(HETATM    9 2H2  HET A   1)   1.10573759 +1  110.0206486 +1 -122.9240169 +1     2     1     3
  H(HETATM   10 1H3  HET A   1)   1.10511203 +1  110.1812507 +1   26.7202000 +1     3     2     1
  H(HETATM   11 2H3  HET A   1)   1.10739974 +1  109.8130257 +1  142.4845112 +1     3     2     1
  H(HETATM   12 1H4  HET A   1)   1.09525738 +1  111.5057058 +1  -60.6565748 +1     4     3     2
  H(HETATM   13 2H4  HET A   1)   1.09608692 +1  111.1776425 +1   59.3244406 +1     4     3     2
  H(HETATM   14 3H4  HET A   1)   1.09529823 +1  111.3121699 +1  179.2035032 +1     4     3     2
 

          Geometry optimization using EF

          DIAGONAL MATRIX USED AS START HESSIAN

 CYCLE:     1 TIME:   0.000 TIME LEFT:  2.00D  GRAD.:     8.275 HEAT: -26.87760
 CYCLE:     2 TIME:   0.020 TIME LEFT:  2.00D  GRAD.:     4.200 HEAT: -27.07357
 CYCLE:     3 TIME:   0.000 TIME LEFT:  2.00D  GRAD.:     2.394 HEAT: -27.18393
 CYCLE:     4 TIME:   0.000 TIME LEFT:  2.00D  GRAD.:     1.711 HEAT: -27.19243
 CYCLE:     5 TIME:   0.000 TIME LEFT:  2.00D  GRAD.:     0.999 HEAT: -27.20128

     GRADIENT =  0.99934  IS LESS THAN CUTOFF =  1.00000



          VARIABLE        FUNCTION
 :       268.00000      -27.201292
*REMARK   3   HET = Not identified; C 4                            res:     1
 step=4.0 points=90 html
  Rotation barrier for C2-C3 in butane

  C(HETATM    1  C1  HET A   1)   0.00000000 +0    0.0000000 +0    0.0000000 +0
  C(HETATM    2  C2  HET A   1)   1.52919693 +1    0.0000000 +0    0.0000000 +0     1     0     0
  C(HETATM    3  C3  HET A   1)   1.53747875 +1  111.7331402 +1    0.0000000 +0     2     1     0
  C(HETATM    4  C4  HET A   1)   1.52940924 +1  111.6729154 +1  -92.0000000 -1     3     2     1
  H(HETATM    5 1H1  HET A   1)   1.09541833 +1  111.5147624 +1  -60.4716285 +1     1     2     3
  H(HETATM    6 2H1  HET A   1)   1.09596207 +1  111.2102257 +1   59.5039265 +1     1     2     3
  H(HETATM    7 3H1  HET A   1)   1.09529116 +1  111.2863692 +1  179.4332361 +1     1     2     3
  H(HETATM    8 1H2  HET A   1)   1.10695949 +1  109.4383774 +1  121.6014022 +1     2     1     3
  H(HETATM    9 2H2  HET A   1)   1.10579745 +1  110.0613642 +1 -122.8676659 +1     2     1     3
  H(HETATM   10 1H3  HET A   1)   1.10508532 +1  110.0397185 +1   30.8136940 +1     3     2     1
  H(HETATM   11 2H3  HET A   1)   1.10751974 +1  109.8670455 +1  146.5991832 +1     3     2     1
  H(HETATM   12 1H4  HET A   1)   1.09524746 +1  111.5012563 +1  -60.8397797 +1     4     3     2
  H(HETATM   13 2H4  HET A   1)   1.09609815 +1  111.1882089 +1   59.1135454 +1     4     3     2
  H(HETATM   14 3H4  HET A   1)   1.09527435 +1  111.3128661 +1  178.9898700 +1     4     3     2
 

          Geometry optimization using EF

          DIAGONAL MATRIX USED AS START HESSIAN

 CYCLE:     1 TIME:   0.000 TIME LEFT:  2.00D  GRAD.:     7.991 HEAT: -27.00902
 CYCLE:     2 TIME:   0.000 TIME LEFT:  2.00D  GRAD.:     4.032 HEAT: -27.19073
 CYCLE:     3 TIME:   0.012 TIME LEFT:  2.00D  GRAD.:     2.376 HEAT: -27.29296
 CYCLE:     4 TIME:   0.000 TIME LEFT:  2.00D  GRAD.:     1.704 HEAT: -27.30119
 CYCLE:     5 TIME:   0.000 TIME LEFT:  2.00D  GRAD.:     0.961 HEAT: -27.30995

     GRADIENT =  0.96064  IS LESS THAN CUTOFF =  1.00000



          VARIABLE        FUNCTION
 :       272.00000      -27.309959
*REMARK   3   HET = Not identified; C 4                            res:     1
 step=4.0 points=90 html
  Rotation barrier for C2-C3 in butane

  C(HETATM    1  C1  HET A   1)   0.00000000 +0    0.0000000 +0    0.0000000 +0
  C(HETATM    2  C2  HET A   1)   1.52918325 +1    0.0000000 +0    0.0000000 +0     1     0     0
  C(HETATM    3  C3  HET A   1)   1.53705400 +1  111.7468088 +1    0.0000000 +0     2     1     0
  C(HETATM    4  C4  HET A   1)   1.52937693 +1  111.6929991 +1  -88.0000000 -1     3     2     1
  H(HETATM    5 1H1  HET A   1)   1.09542577 +1  111.5018924 +1  -60.6145485 +1     1     2     3
  H(HETATM    6 2H1  HET A   1)   1.09593468 +1  111.2398924 +1   59.3396856 +1     1     2     3
  H(HETATM    7 3H1  HET A   1)   1.09528256 +1  111.2807768 +1  179.2812998 +1     1     2     3
  H(HETATM    8 1H2  HET A   1)   1.10700760 +1  109.4519068 +1  121.5923100 +1     2     1     3
  H(HETATM    9 2H2  HET A   1)   1.10586830 +1  110.0792430 +1 -122.7903063 +1     2     1     3
  H(HETATM   10 1H3  HET A   1)   1.10516846 +1  109.9680961 +1   34.7835512 +1     3     2     1
  H(HETATM   11 2H3  HET A   1)   1.10755186 +1  109.8327311 +1  150.5809199 +1     3     2     1
  H(HETATM   12 1H4  HET A   1)   1.09526734 +1  111.4861266 +1  -60.9981678 +1     4     3     2
  H(HETATM   13 2H4  HET A   1)   1.09605706 +1  111.2179895 +1   58.9349498 +1     4     3     2
  H(HETATM   14 3H4  HET A   1)   1.09526050 +1  111.3080562 +1  178.8258846 +1     4     3     2
 

          Geometry optimization using EF

          DIAGONAL MATRIX USED AS START HESSIAN

 CYCLE:     1 TIME:   0.000 TIME LEFT:  2.00D  GRAD.:     8.006 HEAT: -27.09874
 CYCLE:     2 TIME:   0.000 TIME LEFT:  2.00D  GRAD.:     4.022 HEAT: -27.28065
 CYCLE:     3 TIME:   0.000 TIME LEFT:  2.00D  GRAD.:     2.342 HEAT: -27.38163
 CYCLE:     4 TIME:   0.000 TIME LEFT:  2.00D  GRAD.:     1.690 HEAT: -27.38974
 CYCLE:     5 TIME:   0.016 TIME LEFT:  2.00D  GRAD.:     0.889 HEAT: -27.39794

     GRADIENT =  0.88882  IS LESS THAN CUTOFF =  1.00000



          VARIABLE        FUNCTION
 :       276.00000      -27.397937
*REMARK   3   HET = Not identified; C 4                            res:     1
 step=4.0 points=90 html
  Rotation barrier for C2-C3 in butane

  C(HETATM    1  C1  HET A   1)   0.00000000 +0    0.0000000 +0    0.0000000 +0
  C(HETATM    2  C2  HET A   1)   1.52914189 +1    0.0000000 +0    0.0000000 +0     1     0     0
  C(HETATM    3  C3  HET A   1)   1.53668322 +1  111.7990663 +1    0.0000000 +0     2     1     0
  C(HETATM    4  C4  HET A   1)   1.52935073 +1  111.7465009 +1  -84.0000000 -1     3     2     1
  H(HETATM    5 1H1  HET A   1)   1.09543596 +1  111.4846829 +1  -60.7058400 +1     1     2     3
  H(HETATM    6 2H1  HET A   1)   1.09588787 +1  111.2813815 +1   59.2402784 +1     1     2     3
  H(HETATM    7 3H1  HET A   1)   1.09528765 +1  111.2713152 +1  179.1880775 +1     1     2     3
  H(HETATM    8 1H2  HET A   1)   1.10703498 +1  109.4746856 +1  121.6090599 +1     2     1     3
  H(HETATM    9 2H2  HET A   1)   1.10598149 +1  110.0720914 +1 -122.7015221 +1     2     1     3
  H(HETATM   10 1H3  HET A   1)   1.10554597 +1  109.8527696 +1   38.6787985 +1     3     2     1
  H(HETATM   11 2H3  HET A   1)   1.10732508 +1  109.8297991 +1  154.4704813 +1     3     2     1
  H(HETATM   12 1H4  HET A   1)   1.09530449 +1  111.4724655 +1  -61.1047902 +1     4     3     2
  H(HETATM   13 2H4  HET A   1)   1.09599588 +1  111.2563914 +1   58.8182864 +1     4     3     2
  H(HETATM   14 3H4  HET A   1)   1.09525965 +1  111.2978022 +1  178.7237795 +1     4     3     2
 

          Geometry optimization using EF

          DIAGONAL MATRIX USED AS START HESSIAN

 CYCLE:     1 TIME:   0.000 TIME LEFT:  2.00D  GRAD.:     7.993 HEAT: -27.15353
 CYCLE:     2 TIME:   0.000 TIME LEFT:  2.00D  GRAD.:     4.036 HEAT: -27.33770
 CYCLE:     3 TIME:   0.000 TIME LEFT:  2.00D  GRAD.:     2.348 HEAT: -27.44034
 CYCLE:     4 TIME:   0.000 TIME LEFT:  2.00D  GRAD.:     1.699 HEAT: -27.44863
 CYCLE:     5 TIME:   0.000 TIME LEFT:  2.00D  GRAD.:     0.895 HEAT: -27.45695

     GRADIENT =  0.89517  IS LESS THAN CUTOFF =  1.00000



          VARIABLE        FUNCTION
 :       280.00000      -27.456952
*REMARK   3   HET = Not identified; C 4                            res:     1
 step=4.0 points=90 html
  Rotation barrier for C2-C3 in butane

  C(HETATM    1  C1  HET A   1)   0.00000000 +0    0.0000000 +0    0.0000000 +0
  C(HETATM    2  C2  HET A   1)   1.52910364 +1    0.0000000 +0    0.0000000 +0     1     0     0
  C(HETATM    3  C3  HET A   1)   1.53637382 +1  111.8885045 +1    0.0000000 +0     2     1     0
  C(HETATM    4  C4  HET A   1)   1.52930530 +1  111.8417828 +1  -80.0000000 -1     3     2     1
  H(HETATM    5 1H1  HET A   1)   1.09545608 +1  111.4655151 +1  -60.7306238 +1     1     2     3
  H(HETATM    6 2H1  HET A   1)   1.09583200 +1  111.3357750 +1   59.2170580 +1     1     2     3
  H(HETATM    7 3H1  HET A   1)   1.09530718 +1  111.2548638 +1  179.1654400 +1     1     2     3
  H(HETATM    8 1H2  HET A   1)   1.10704999 +1  109.5048510 +1  121.6479255 +1     2     1     3
  H(HETATM    9 2H2  HET A   1)   1.10614869 +1  110.0355070 +1 -122.6083618 +1     2     1     3
  H(HETATM   10 1H3  HET A   1)   1.10573399 +1  109.7415755 +1   42.6125976 +1     3     2     1
  H(HETATM   11 2H3  HET A   1)   1.10731652 +1  109.8015308 +1  158.3883733 +1     3     2     1
  H(HETATM   12 1H4  HET A   1)   1.09532363 +1  111.4524537 +1  -61.1438350 +1     4     3     2
  H(HETATM   13 2H4  HET A   1)   1.09593968 +1  111.3096212 +1   58.7808040 +1     4     3     2
  H(HETATM   14 3H4  HET A   1)   1.09527416 +1  111.2823009 +1  178.6883379 +1     4     3     2
 

          Geometry optimization using EF

          DIAGONAL MATRIX USED AS START HESSIAN

 CYCLE:     1 TIME:   0.000 TIME LEFT:  2.00D  GRAD.:     8.004 HEAT: -27.17886
 CYCLE:     2 TIME:   0.000 TIME LEFT:  2.00D  GRAD.:     4.037 HEAT: -27.36277
 CYCLE:     3 TIME:   0.000 TIME LEFT:  2.00D  GRAD.:     2.364 HEAT: -27.46463
 CYCLE:     4 TIME:   0.000 TIME LEFT:  2.00D  GRAD.:     1.724 HEAT: -27.47296
 CYCLE:     5 TIME:   0.000 TIME LEFT:  2.00D  GRAD.:     0.868 HEAT: -27.48113

     GRADIENT =  0.86823  IS LESS THAN CUTOFF =  1.00000



          VARIABLE        FUNCTION
 :       284.00000      -27.481136
*REMARK   3   HET = Not identified; C 4                            res:     1
 step=4.0 points=90 html
  Rotation barrier for C2-C3 in butane

  C(HETATM    1  C1  HET A   1)   0.00000000 +0    0.0000000 +0    0.0000000 +0
  C(HETATM    2  C2  HET A   1)   1.52902752 +1    0.0000000 +0    0.0000000 +0     1     0     0
  C(HETATM    3  C3  HET A   1)   1.53614895 +1  112.0239167 +1    0.0000000 +0     2     1     0
  C(HETATM    4  C4  HET A   1)   1.52925603 +1  111.9801656 +1  -76.0000000 -1     3     2     1
  H(HETATM    5 1H1  HET A   1)   1.09547341 +1  111.4447662 +1  -60.6756048 +1     1     2     3
  H(HETATM    6 2H1  HET A   1)   1.09576891 +1  111.3957991 +1   59.2868027 +1     1     2     3
  H(HETATM    7 3H1  HET A   1)   1.09533809 +1  111.2342130 +1  179.2262275 +1     1     2     3
  H(HETATM    8 1H2  HET A   1)   1.10705926 +1  109.5357409 +1  121.7093189 +1     2     1     3
  H(HETATM    9 2H2  HET A   1)   1.10635819 +1  109.9737518 +1 -122.5144662 +1     2     1     3
  H(HETATM   10 1H3  HET A   1)   1.10612105 +1  109.6130131 +1   46.4965884 +1     3     2     1
  H(HETATM   11 2H3  HET A   1)   1.10715542 +1  109.7794692 +1  162.2342177 +1     3     2     1
  H(HETATM   12 1H4  HET A   1)   1.09536202 +1  111.4328126 +1  -61.1049630 +1     4     3     2
  H(HETATM   13 2H4  HET A   1)   1.09586334 +1  111.3682072 +1   58.8349757 +1     4     3     2
  H(HETATM   14 3H4  HET A   1)   1.09530302 +1  111.2607209 +1  178.7403114 +1     4     3     2
 

          Geometry optimization using EF

          DIAGONAL MATRIX USED AS START HESSIAN

 CYCLE:     1 TIME:   0.000 TIME LEFT:  2.00D  GRAD.:     8.028 HEAT: -27.15974
 CYCLE:     2 TIME:   0.012 TIME LEFT:  2.00D  GRAD.:     4.080 HEAT: -27.34604
 CYCLE:     3 TIME:   0.000 TIME LEFT:  2.00D  GRAD.:     2.406 HEAT: -27.44982
 CYCLE:     4 TIME:   0.000 TIME LEFT:  2.00D  GRAD.:     1.743 HEAT: -27.45830
 CYCLE:     5 TIME:   0.000 TIME LEFT:  2.00D  GRAD.:     0.948 HEAT: -27.46748

     GRADIENT =  0.94755  IS LESS THAN CUTOFF =  1.00000



          VARIABLE        FUNCTION
 :       288.00000      -27.467484
*REMARK   3   HET = Not identified; C 4                            res:     1
 step=4.0 points=90 html
  Rotation barrier for C2-C3 in butane

  C(HETATM    1  C1  HET A   1)   0.00000000 +0    0.0000000 +0    0.0000000 +0
  C(HETATM    2  C2  HET A   1)   1.52895518 +1    0.0000000 +0    0.0000000 +0     1     0     0
  C(HETATM    3  C3  HET A   1)   1.53600295 +1  112.1949289 +1    0.0000000 +0     2     1     0
  C(HETATM    4  C4  HET A   1)   1.52915250 +1  112.1628148 +1  -72.0000000 -1     3     2     1
  H(HETATM    5 1H1  HET A   1)   1.09549677 +1  111.4241815 +1  -60.5165262 +1     1     2     3
  H(HETATM    6 2H1  HET A   1)   1.09570865 +1  111.4604034 +1   59.4715386 +1     1     2     3
  H(HETATM    7 3H1  HET A   1)   1.09538608 +1  111.2078624 +1  179.3962801 +1     1     2     3
  H(HETATM    8 1H2  HET A   1)   1.10706642 +1  109.5716946 +1  121.7911562 +1     2     1     3
  H(HETATM    9 2H2  HET A   1)   1.10662261 +1  109.8807514 +1 -122.4264932 +1     2     1     3
  H(HETATM   10 1H3  HET A   1)   1.10611211 +1  109.5156615 +1   50.4743272 +1     3     2     1
  H(HETATM   11 2H3  HET A   1)   1.10742638 +1  109.7011346 +1  166.1619032 +1     3     2     1
  H(HETATM   12 1H4  HET A   1)   1.09536381 +1  111.4070219 +1  -60.9590308 +1     4     3     2
  H(HETATM   13 2H4  HET A   1)   1.09581899 +1  111.4379075 +1   59.0106568 +1     4     3     2
  H(HETATM   14 3H4  HET A   1)   1.09534645 +1  111.2341002 +1  178.8927223 +1     4     3     2
 

          Geometry optimization using EF

          DIAGONAL MATRIX USED AS START HESSIAN

 CYCLE:     1 TIME:   0.000 TIME LEFT:  2.00D  GRAD.:     8.099 HEAT: -27.11205
 CYCLE:     2 TIME:   0.000 TIME LEFT:  2.00D  GRAD.:     4.052 HEAT: -27.29658
 CYCLE:     3 TIME:   0.020 TIME LEFT:  2.00D  GRAD.:     2.378 HEAT: -27.39731
 CYCLE:     4 TIME:   0.000 TIME LEFT:  2.00D  GRAD.:     1.770 HEAT: -27.40610
 CYCLE:     5 TIME:   0.000 TIME LEFT:  2.00D  GRAD.:     0.948 HEAT: -27.41536

     GRADIENT =  0.94802  IS LESS THAN CUTOFF =  1.00000



          VARIABLE        FUNCTION
 :       292.00000      -27.415362
*REMARK   3   HET = Not identified; C 4                            res:     1
 step=4.0 points=90 html
  Rotation barrier for C2-C3 in butane

  C(HETATM    1  C1  HET A   1)   0.00000000 +0    0.0000000 +0    0.0000000 +0
  C(HETATM    2  C2  HET A   1)   1.52884493 +1    0.0000000 +0    0.0000000 +0     1     0     0
  C(HETATM    3  C3  HET A   1)   1.53600179 +1  112.4038584 +1    0.0000000 +0     2     1     0
  C(HETATM    4  C4  HET A   1)   1.52906260 +1  112.3774879 +1  -68.0000000 -1     3     2     1
  H(HETATM    5 1H1  HET A   1)   1.09550833 +1  111.4056345 +1  -60.2619048 +1     1     2     3
  H(HETATM    6 2H1  HET A   1)   1.09565320 +1  111.5184165 +1   59.7685646 +1     1     2     3
  H(HETATM    7 3H1  HET A   1)   1.09544180 +1  111.1806290 +1  179.6633230 +1     1     2     3
  H(HETATM    8 1H2  HET A   1)   1.10706395 +1  109.6038171 +1  121.8878055 +1     2     1     3
  H(HETATM    9 2H2  HET A   1)   1.10688731 +1  109.7776202 +1 -122.3468292 +1     2     1     3
  H(HETATM   10 1H3  HET A   1)   1.10662686 +1  109.3748160 +1   54.3630254 +1     3     2     1
  H(HETATM   11 2H3  HET A   1)   1.10719526 +1  109.6723991 +1  169.9784365 +1     3     2     1
  H(HETATM   12 1H4  HET A   1)   1.09540392 +1  111.3919228 +1  -60.7220363 +1     4     3     2
  H(HETATM   13 2H4  HET A   1)   1.09574640 +1  111.4948882 +1   59.2884262 +1     4     3     2
  H(HETATM   14 3H4  HET A   1)   1.09540278 +1  111.2047997 +1  179.1497942 +1     4     3     2
 

          Geometry optimization using EF

          DIAGONAL MATRIX USED AS START HESSIAN

 CYCLE:     1 TIME:   0.000 TIME LEFT:  2.00D  GRAD.:     8.071 HEAT: -27.01890
 CYCLE:     2 TIME:   0.000 TIME LEFT:  2.00D  GRAD.:     4.063 HEAT: -27.20432
 CYCLE:     3 TIME:   0.000 TIME LEFT:  2.00D  GRAD.:     2.422 HEAT: -27.30705
 CYCLE:     4 TIME:   0.000 TIME LEFT:  2.00D  GRAD.:     1.835 HEAT: -27.31667
 CYCLE:     5 TIME:   0.012 TIME LEFT:  2.00D  GRAD.:     1.050 HEAT: -27.32765
 CYCLE:     6 TIME:   0.000 TIME LEFT:  2.00D  GRAD.:     0.966 HEAT: -27.33104

     GRADIENT =  0.96632  IS LESS THAN CUTOFF =  1.00000



          VARIABLE        FUNCTION
 :       296.00000      -27.331039
*REMARK   3   HET = Not identified; C 4                            res:     1
 step=4.0 points=90 html
  Rotation barrier for C2-C3 in butane

  C(HETATM    1  C1  HET A   1)   0.00000000 +0    0.0000000 +0    0.0000000 +0
  C(HETATM    2  C2  HET A   1)   1.52877989 +1    0.0000000 +0    0.0000000 +0     1     0     0
  C(HETATM    3  C3  HET A   1)   1.53606117 +1  112.6234392 +1    0.0000000 +0     2     1     0
  C(HETATM    4  C4  HET A   1)   1.52886305 +1  112.6165676 +1  -64.0000000 -1     3     2     1
  H(HETATM    5 1H1  HET A   1)   1.09554336 +1  111.3863184 +1  -59.7852442 +1     1     2     3
  H(HETATM    6 2H1  HET A   1)   1.09558927 +1  111.5704799 +1   60.2903749 +1     1     2     3
  H(HETATM    7 3H1  HET A   1)   1.09548822 +1  111.1513428 +1 -179.8407688 +1     1     2     3
  H(HETATM    8 1H2  HET A   1)   1.10704404 +1  109.6408608 +1  122.0014828 +1     2     1     3
  H(HETATM    9 2H2  HET A   1)   1.10719893 +1  109.6286726 +1 -122.2658361 +1     2     1     3
  H(HETATM   10 1H3  HET A   1)   1.10618164 +1  109.4171780 +1   58.3884987 +1     3     2     1
  H(HETATM   11 2H3  HET A   1)   1.10795282 +1  109.4331503 +1  173.9268656 +1     3     2     1
  H(HETATM   12 1H4  HET A   1)   1.09538650 +1  111.3602830 +1  -60.2664699 +1     4     3     2
  H(HETATM   13 2H4  HET A   1)   1.09573210 +1  111.5696171 +1   59.7966088 +1     4     3     2
  H(HETATM   14 3H4  HET A   1)   1.09547391 +1  111.1690097 +1  179.6259872 +1     4     3     2
 

          Geometry optimization using EF

          DIAGONAL MATRIX USED AS START HESSIAN

 CYCLE:     1 TIME:   0.000 TIME LEFT:  2.00D  GRAD.:     8.459 HEAT: -26.89917
 CYCLE:     2 TIME:   0.000 TIME LEFT:  2.00D  GRAD.:     4.157 HEAT: -27.09062
 CYCLE:     3 TIME:   0.000 TIME LEFT:  2.00D  GRAD.:     2.302 HEAT: -27.19105
 CYCLE:     4 TIME:   0.000 TIME LEFT:  2.00D  GRAD.:     1.709 HEAT: -27.19975
 CYCLE:     5 TIME:   0.016 TIME LEFT:  2.00D  GRAD.:     1.179 HEAT: -27.21121
 CYCLE:     6 TIME:   0.000 TIME LEFT:  2.00D  GRAD.:     1.125 HEAT: -27.21486
 CYCLE:     7 TIME:   0.000 TIME LEFT:  2.00D  GRAD.:     1.140 HEAT: -27.22187
 CYCLE:     8 TIME:   0.000 TIME LEFT:  2.00D  GRAD.:     0.913 HEAT: -27.22434

     GRADIENT =  0.91321  IS LESS THAN CUTOFF =  1.00000



          VARIABLE        FUNCTION
 :       300.00000      -27.224341
*REMARK   3   HET = Not identified; C 4                            res:     1
 step=4.0 points=90 html
  Rotation barrier for C2-C3 in butane

  C(HETATM    1  C1  HET A   1)   0.00000000 +0    0.0000000 +0    0.0000000 +0
  C(HETATM    2  C2  HET A   1)   1.52880767 +1    0.0000000 +0    0.0000000 +0     1     0     0
  C(HETATM    3  C3  HET A   1)   1.53642487 +1  112.8106388 +1    0.0000000 +0     2     1     0
  C(HETATM    4  C4  HET A   1)   1.52855580 +1  112.8311884 +1  -60.0000000 -1     3     2     1
  H(HETATM    5 1H1  HET A   1)   1.09553046 +1  111.3589987 +1  -58.6386521 +1     1     2     3
  H(HETATM    6 2H1  HET A   1)   1.09547363 +1  111.5861344 +1   61.4957685 +1     1     2     3
  H(HETATM    7 3H1  HET A   1)   1.09543931 +1  111.1381897 +1 -178.6717397 +1     1     2     3
  H(HETATM    8 1H2  HET A   1)   1.10682906 +1  109.6874069 +1  122.0987839 +1     2     1     3
  H(HETATM    9 2H2  HET A   1)   1.10729387 +1  109.4729317 +1 -122.1395690 +1     2     1     3
  H(HETATM   10 1H3  HET A   1)   1.10676550 +1  109.7280702 +1   62.3773433 +1     3     2     1
  H(HETATM   11 2H3  HET A   1)   1.10749904 +1  108.9796663 +1  177.8516084 +1     3     2     1
  H(HETATM   12 1H4  HET A   1)   1.09553029 +1  111.3351623 +1  -59.1389728 +1     4     3     2
  H(HETATM   13 2H4  HET A   1)   1.09550814 +1  111.6188431 +1   60.9892943 +1     4     3     2
  H(HETATM   14 3H4  HET A   1)   1.09551613 +1  111.1381851 +1 -179.1487792 +1     4     3     2
 

          Geometry optimization using EF

          DIAGONAL MATRIX USED AS START HESSIAN

 CYCLE:     1 TIME:   0.000 TIME LEFT:  2.00D  GRAD.:     8.838 HEAT: -26.74513
 CYCLE:     2 TIME:   0.000 TIME LEFT:  2.00D  GRAD.:     4.493 HEAT: -26.95637
 CYCLE:     3 TIME:   0.000 TIME LEFT:  2.00D  GRAD.:     2.041 HEAT: -27.06486
 CYCLE:     4 TIME:   0.020 TIME LEFT:  2.00D  GRAD.:     1.407 HEAT: -27.07141
 CYCLE:     5 TIME:   0.000 TIME LEFT:  2.00D  GRAD.:     1.263 HEAT: -27.08016
 CYCLE:     6 TIME:   0.000 TIME LEFT:  2.00D  GRAD.:     1.231 HEAT: -27.08366
 CYCLE:     7 TIME:   0.000 TIME LEFT:  2.00D  GRAD.:     1.352 HEAT: -27.09301
 CYCLE:     8 TIME:   0.000 TIME LEFT:  2.00D  GRAD.:     1.026 HEAT: -27.09607
 CYCLE:     9 TIME:   0.000 TIME LEFT:  2.00D  GRAD.:     4.877 HEAT: -27.10026
 CYCLE:    10 TIME:   0.000 TIME LEFT:  2.00D  GRAD.:     2.047 HEAT: -27.11604
 CYCLE:    11 TIME:   0.012 TIME LEFT:  2.00D  GRAD.:     0.817 HEAT: -27.12855

     GRADIENT =  0.81651  IS LESS THAN CUTOFF =  1.00000



          VARIABLE        FUNCTION
 :       304.00000      -27.128655
*REMARK   3   HET = Not identified; C 4                            res:     1
 step=4.0 points=90 html
  Rotation barrier for C2-C3 in butane

  C(HETATM    1  C1  HET A   1)   0.00000000 +0    0.0000000 +0    0.0000000 +0
  C(HETATM    2  C2  HET A   1)   1.52862465 +1    0.0000000 +0    0.0000000 +0     1     0     0
  C(HETATM    3  C3  HET A   1)   1.53663630 +1  112.9183777 +1    0.0000000 +0     2     1     0
  C(HETATM    4  C4  HET A   1)   1.52873786 +1  112.8882731 +1  -56.0000000 -1     3     2     1
  H(HETATM    5 1H1  HET A   1)   1.09557184 +1  111.3264812 +1  -55.0810474 +1     1     2     3
  H(HETATM    6 2H1  HET A   1)   1.09554292 +1  111.5134526 +1   65.0275292 +1     1     2     3
  H(HETATM    7 3H1  HET A   1)   1.09545126 +1  111.1693393 +1 -175.1232112 +1     1     2     3
  H(HETATM    8 1H2  HET A   1)   1.10677212 +1  109.7327967 +1  122.1457115 +1     2     1     3
  H(HETATM    9 2H2  HET A   1)   1.10739614 +1  109.4907478 +1 -122.1436811 +1     2     1     3
  H(HETATM   10 1H3  HET A   1)   1.10786539 +1  109.6106935 +1   66.4018023 +1     3     2     1
  H(HETATM   11 2H3  HET A   1)   1.10637507 +1  109.1366597 +1 -178.1482474 +1     3     2     1
  H(HETATM   12 1H4  HET A   1)   1.09571302 +1  111.3768279 +1  -55.4496084 +1     4     3     2
  H(HETATM   13 2H4  HET A   1)   1.09534998 +1  111.5346393 +1   64.6946299 +1     4     3     2
  H(HETATM   14 3H4  HET A   1)   1.09551183 +1  111.1454037 +1 -175.4525579 +1     4     3     2
 

          Geometry optimization using EF

          DIAGONAL MATRIX USED AS START HESSIAN

 CYCLE:     1 TIME:   0.000 TIME LEFT:  2.00D  GRAD.:     7.959 HEAT: -26.66298
 CYCLE:     2 TIME:   0.000 TIME LEFT:  2.00D  GRAD.:     4.171 HEAT: -26.84788
 CYCLE:     3 TIME:   0.000 TIME LEFT:  2.00D  GRAD.:     1.983 HEAT: -26.94743
 CYCLE:     4 TIME:   0.000 TIME LEFT:  2.00D  GRAD.:     1.360 HEAT: -26.95305
 CYCLE:     5 TIME:   0.000 TIME LEFT:  2.00D  GRAD.:     0.994 HEAT: -26.95924

     GRADIENT =  0.99381  IS LESS THAN CUTOFF =  1.00000



          VARIABLE        FUNCTION
 :       308.00000      -26.959240
*REMARK   3   HET = Not identified; C 4                            res:     1
 step=4.0 points=90 html
  Rotation barrier for C2-C3 in butane

  C(HETATM    1  C1  HET A   1)   0.00000000 +0    0.0000000 +0    0.0000000 +0
  C(HETATM    2  C2  HET A   1)   1.52861486 +1    0.0000000 +0    0.0000000 +0     1     0     0
  C(HETATM    3  C3  HET A   1)   1.53684747 +1  113.1140270 +1    0.0000000 +0     2     1     0
  C(HETATM    4  C4  HET A   1)   1.52870497 +1  113.1171569 +1  -52.0000000 -1     3     2     1
  H(HETATM    5 1H1  HET A   1)   1.09564562 +1  111.3677693 +1  -54.8454971 +1     1     2     3
  H(HETATM    6 2H1  HET A   1)   1.09554986 +1  111.5706644 +1   65.3335803 +1     1     2     3
  H(HETATM    7 3H1  HET A   1)   1.09557925 +1  111.1222888 +1 -174.8496222 +1     1     2     3
  H(HETATM    8 1H2  HET A   1)   1.10700515 +1  109.7325601 +1  122.2086792 +1     2     1     3
  H(HETATM    9 2H2  HET A   1)   1.10764309 +1  109.3338217 +1 -122.2031821 +1     2     1     3
  H(HETATM   10 1H3  HET A   1)   1.10689527 +1  109.1736350 +1   70.1855138 +1     3     2     1
  H(HETATM   11 2H3  HET A   1)   1.10764443 +1  109.3815825 +1 -174.4522265 +1     3     2     1
  H(HETATM   12 1H4  HET A   1)   1.09547949 +1  111.3510888 +1  -55.1881926 +1     4     3     2
  H(HETATM   13 2H4  HET A   1)   1.09569363 +1  111.5630598 +1   64.9871234 +1     4     3     2
  H(HETATM   14 3H4  HET A   1)   1.09556359 +1  111.1315019 +1 -175.2450478 +1     4     3     2
 

          Geometry optimization using EF

          DIAGONAL MATRIX USED AS START HESSIAN

 CYCLE:     1 TIME:   0.016 TIME LEFT:  2.00D  GRAD.:     8.299 HEAT: -26.45981
 CYCLE:     2 TIME:   0.000 TIME LEFT:  2.00D  GRAD.:     4.071 HEAT: -26.64619
 CYCLE:     3 TIME:   0.000 TIME LEFT:  2.00D  GRAD.:     2.329 HEAT: -26.74449
 CYCLE:     4 TIME:   0.000 TIME LEFT:  2.00D  GRAD.:     1.722 HEAT: -26.75296
 CYCLE:     5 TIME:   0.000 TIME LEFT:  2.00D  GRAD.:     1.025 HEAT: -26.76228
 CYCLE:     6 TIME:   0.000 TIME LEFT:  2.00D  GRAD.:     0.814 HEAT: -26.76444

     GRADIENT =  0.81417  IS LESS THAN CUTOFF =  1.00000



          VARIABLE        FUNCTION
 :       312.00000      -26.764444
*REMARK   3   HET = Not identified; C 4                            res:     1
 step=4.0 points=90 html
  Rotation barrier for C2-C3 in butane

  C(HETATM    1  C1  HET A   1)   0.00000000 +0    0.0000000 +0    0.0000000 +0
  C(HETATM    2  C2  HET A   1)   1.52852969 +1    0.0000000 +0    0.0000000 +0     1     0     0
  C(HETATM    3  C3  HET A   1)   1.53734247 +1  113.3315911 +1    0.0000000 +0     2     1     0
  C(HETATM    4  C4  HET A   1)   1.52858142 +1  113.3417243 +1  -48.0000000 -1     3     2     1
  H(HETATM    5 1H1  HET A   1)   1.09566208 +1  111.3626630 +1  -54.5485373 +1     1     2     3
  H(HETATM    6 2H1  HET A   1)   1.09551516 +1  111.5866796 +1   65.6846770 +1     1     2     3
  H(HETATM    7 3H1  HET A   1)   1.09562029 +1  111.0976612 +1 -174.5185092 +1     1     2     3
  H(HETATM    8 1H2  HET A   1)   1.10692792 +1  109.7482453 +1  122.3358340 +1     2     1     3
  H(HETATM    9 2H2  HET A   1)   1.10784959 +1  109.2072047 +1 -122.1536516 +1     2     1     3
  H(HETATM   10 1H3  HET A   1)   1.10714138 +1  109.1628661 +1   74.1005839 +1     3     2     1
  H(HETATM   11 2H3  HET A   1)   1.10758538 +1  109.2802449 +1 -170.6260201 +1     3     2     1
  H(HETATM   12 1H4  HET A   1)   1.09554242 +1  111.3387848 +1  -54.9195861 +1     4     3     2
  H(HETATM   13 2H4  HET A   1)   1.09564044 +1  111.5940207 +1   65.3036488 +1     4     3     2
  H(HETATM   14 3H4  HET A   1)   1.09562135 +1  111.1103765 +1 -174.9276215 +1     4     3     2
 

          Geometry optimization using EF

          DIAGONAL MATRIX USED AS START HESSIAN

 CYCLE:     1 TIME:   0.016 TIME LEFT:  2.00D  GRAD.:     8.450 HEAT: -26.23111
 CYCLE:     2 TIME:   0.000 TIME LEFT:  2.00D  GRAD.:     4.160 HEAT: -26.42406
 CYCLE:     3 TIME:   0.000 TIME LEFT:  2.00D  GRAD.:     2.313 HEAT: -26.52514
 CYCLE:     4 TIME:   0.000 TIME LEFT:  2.00D  GRAD.:     1.680 HEAT: -26.53323
 CYCLE:     5 TIME:   0.000 TIME LEFT:  2.00D  GRAD.:     1.054 HEAT: -26.54195
 CYCLE:     6 TIME:   0.000 TIME LEFT:  2.00D  GRAD.:     0.799 HEAT: -26.54402

     GRADIENT =  0.79926  IS LESS THAN CUTOFF =  1.00000



          VARIABLE        FUNCTION
 :       316.00000      -26.544020
[...]
  Rotation barrier for C2-C3 in butane

  C(HETATM    1  C1  HET A   1)   0.00000000 +0    0.0000000 +0    0.0000000 +0
  C(HETATM    2  C2  HET A   1)   1.52911113 +1    0.0000000 +0    0.0000000 +0     1     0     0
  C(HETATM    3  C3  HET A   1)   1.53755795 +1  111.4056721 +1    0.0000000 +0     2     1     0
  C(HETATM    4  C4  HET A   1)   1.52921853 +1  111.4050151 +1  148.0000000 -1     3     2     1
  H(HETATM    5 1H1  HET A   1)   1.09569018 +1  111.4263837 +1  -60.6439041 +1     1     2     3
  H(HETATM    6 2H1  HET A   1)   1.09559013 +1  111.4103748 +1   59.5288019 +1     1     2     3
  H(HETATM    7 3H1  HET A   1)   1.09551962 +1  111.2353106 +1  179.4719874 +1     1     2     3
  H(HETATM    8 1H2  HET A   1)   1.10723931 +1  109.2730514 +1  121.9282067 +1     2     1     3
  H(HETATM    9 2H2  HET A   1)   1.10510420 +1  110.3150153 +1 -122.4485134 +1     2     1     3
  H(HETATM   10 1H3  HET A   1)   1.10471098 +1  109.7147985 +1  -89.3410311 +1     3     2     1
  H(HETATM   11 2H3  HET A   1)   1.10760739 +1  110.3555643 +1   26.5716471 +1     3     2     1
  H(HETATM   12 1H4  HET A   1)   1.09555408 +1  111.4327894 +1  -61.4825379 +1     4     3     2
  H(HETATM   13 2H4  HET A   1)   1.09574990 +1  111.3969203 +1   58.6947163 +1     4     3     2
  H(HETATM   14 3H4  HET A   1)   1.09557156 +1  111.2438654 +1  178.5713387 +1     4     3     2
 

          Geometry optimization using EF

          DIAGONAL MATRIX USED AS START HESSIAN

 CYCLE:     1 TIME:   0.000 TIME LEFT:  2.00D  GRAD.:     8.006 HEAT: -27.21558
 CYCLE:     2 TIME:   0.000 TIME LEFT:  2.00D  GRAD.:     4.052 HEAT: -27.40015
 CYCLE:     3 TIME:   0.000 TIME LEFT:  2.00D  GRAD.:     2.436 HEAT: -27.50436
 CYCLE:     4 TIME:   0.000 TIME LEFT:  2.00D  GRAD.:     1.792 HEAT: -27.51323
 CYCLE:     5 TIME:   0.000 TIME LEFT:  2.00D  GRAD.:     0.961 HEAT: -27.52282

     GRADIENT =  0.96054  IS LESS THAN CUTOFF =  1.00000



          VARIABLE        FUNCTION
 :       512.00000      -27.522829
*REMARK   3   HET = Not identified; C 4                            res:     1
 step=4.0 points=90 html
  Rotation barrier for C2-C3 in butane

  C(HETATM    1  C1  HET A   1)   0.00000000 +0    0.0000000 +0    0.0000000 +0
  C(HETATM    2  C2  HET A   1)   1.52904291 +1    0.0000000 +0    0.0000000 +0     1     0     0
  C(HETATM    3  C3  HET A   1)   1.53707370 +1  111.3200338 +1    0.0000000 +0     2     1     0
  C(HETATM    4  C4  HET A   1)   1.52915555 +1  111.3160966 +1  152.0000000 -1     3     2     1
  H(HETATM    5 1H1  HET A   1)   1.09566834 +1  111.4351393 +1  -60.7774003 +1     1     2     3
  H(HETATM    6 2H1  HET A   1)   1.09560597 +1  111.4084007 +1   59.3836497 +1     1     2     3
  H(HETATM    7 3H1  HET A   1)   1.09551863 +1  111.2355479 +1  179.3258038 +1     1     2     3
  H(HETATM    8 1H2  HET A   1)   1.10724765 +1  109.3207874 +1  121.8480666 +1     2     1     3
  H(HETATM    9 2H2  HET A   1)   1.10511578 +1  110.3532990 +1 -122.4125516 +1     2     1     3
  H(HETATM   10 1H3  HET A   1)   1.10469906 +1  109.7226839 +1  -85.3434708 +1     3     2     1
  H(HETATM   11 2H3  HET A   1)   1.10763091 +1  110.3043957 +1   30.6137991 +1     3     2     1
  H(HETATM   12 1H4  HET A   1)   1.09553889 +1  111.4412726 +1  -61.6139654 +1     4     3     2
  H(HETATM   13 2H4  HET A   1)   1.09576019 +1  111.3957960 +1   58.5504514 +1     4     3     2
  H(HETATM   14 3H4  HET A   1)   1.09556617 +1  111.2440659 +1  178.4282758 +1     4     3     2
 

          Geometry optimization using EF

          DIAGONAL MATRIX USED AS START HESSIAN

 CYCLE:     1 TIME:   0.016 TIME LEFT:  2.00D  GRAD.:     7.987 HEAT: -27.37957
 CYCLE:     2 TIME:   0.000 TIME LEFT:  2.00D  GRAD.:     4.030 HEAT: -27.56251
 CYCLE:     3 TIME:   0.000 TIME LEFT:  2.00D  GRAD.:     2.396 HEAT: -27.66451
 CYCLE:     4 TIME:   0.000 TIME LEFT:  2.00D  GRAD.:     1.760 HEAT: -27.67292
 CYCLE:     5 TIME:   0.000 TIME LEFT:  2.00D  GRAD.:     1.022 HEAT: -27.68193
 CYCLE:     6 TIME:   0.000 TIME LEFT:  2.00D  GRAD.:     0.698 HEAT: -27.68367

     GRADIENT =  0.69773  IS LESS THAN CUTOFF =  1.00000



          VARIABLE        FUNCTION
 :       516.00000      -27.683670
*REMARK   3   HET = Not identified; C 4                            res:     1
 step=4.0 points=90 html
  Rotation barrier for C2-C3 in butane

  C(HETATM    1  C1  HET A   1)   0.00000000 +0    0.0000000 +0    0.0000000 +0
  C(HETATM    2  C2  HET A   1)   1.52899149 +1    0.0000000 +0    0.0000000 +0     1     0     0
  C(HETATM    3  C3  HET A   1)   1.53666241 +1  111.2433719 +1    0.0000000 +0     2     1     0
  C(HETATM    4  C4  HET A   1)   1.52907802 +1  111.2325065 +1  156.0000000 -1     3     2     1
  H(HETATM    5 1H1  HET A   1)   1.09565007 +1  111.4425696 +1  -60.9134779 +1     1     2     3
  H(HETATM    6 2H1  HET A   1)   1.09562102 +1  111.4076197 +1   59.2410554 +1     1     2     3
  H(HETATM    7 3H1  HET A   1)   1.09551097 +1  111.2363157 +1  179.1808139 +1     1     2     3
  H(HETATM    8 1H2  HET A   1)   1.10716446 +1  109.3941052 +1  121.7908466 +1     2     1     3
  H(HETATM    9 2H2  HET A   1)   1.10518392 +1  110.3683405 +1 -122.3504474 +1     2     1     3
  H(HETATM   10 1H3  HET A   1)   1.10477431 +1  109.8014960 +1  -81.4707826 +1     3     2     1
  H(HETATM   11 2H3  HET A   1)   1.10756275 +1  110.1863840 +1   34.5241360 +1     3     2     1
  H(HETATM   12 1H4  HET A   1)   1.09553111 +1  111.4422544 +1  -61.7384478 +1     4     3     2
  H(HETATM   13 2H4  HET A   1)   1.09574883 +1  111.3989573 +1   58.4113004 +1     4     3     2
  H(HETATM   14 3H4  HET A   1)   1.09555257 +1  111.2450470 +1  178.3077051 +1     4     3     2
 

          Geometry optimization using EF

          DIAGONAL MATRIX USED AS START HESSIAN

 CYCLE:     1 TIME:   0.016 TIME LEFT:  2.00D  GRAD.:     8.253 HEAT: -27.51143
 CYCLE:     2 TIME:   0.000 TIME LEFT:  2.00D  GRAD.:     4.174 HEAT: -27.70665
 CYCLE:     3 TIME:   0.000 TIME LEFT:  2.00D  GRAD.:     2.367 HEAT: -27.81321
 CYCLE:     4 TIME:   0.000 TIME LEFT:  2.00D  GRAD.:     1.696 HEAT: -27.82112
 CYCLE:     5 TIME:   0.000 TIME LEFT:  2.00D  GRAD.:     0.936 HEAT: -27.82971

     GRADIENT =  0.93562  IS LESS THAN CUTOFF =  1.00000



          VARIABLE        FUNCTION
 :       520.00000      -27.829716
*REMARK   3   HET = Not identified; C 4                            res:     1
 step=4.0 points=90 html
  Rotation barrier for C2-C3 in butane

  C(HETATM    1  C1  HET A   1)   0.00000000 +0    0.0000000 +0    0.0000000 +0
  C(HETATM    2  C2  HET A   1)   1.52892993 +1    0.0000000 +0    0.0000000 +0     1     0     0
  C(HETATM    3  C3  HET A   1)   1.53615731 +1  111.1655271 +1    0.0000000 +0     2     1     0
  C(HETATM    4  C4  HET A   1)   1.52904129 +1  111.1539919 +1  160.0000000 -1     3     2     1
  H(HETATM    5 1H1  HET A   1)   1.09563890 +1  111.4446406 +1  -61.0031453 +1     1     2     3
  H(HETATM    6 2H1  HET A   1)   1.09563060 +1  111.4101834 +1   59.1323276 +1     1     2     3
  H(HETATM    7 3H1  HET A   1)   1.09550338 +1  111.2374771 +1  179.0762196 +1     1     2     3
  H(HETATM    8 1H2  HET A   1)   1.10713659 +1  109.4718762 +1  121.7558909 +1     2     1     3
  H(HETATM    9 2H2  HET A   1)   1.10525646 +1  110.3623907 +1 -122.2873021 +1     2     1     3
  H(HETATM   10 1H3  HET A   1)   1.10486713 +1  109.7090101 +1  -77.4970169 +1     3     2     1
  H(HETATM   11 2H3  HET A   1)   1.10748657 +1  110.2363024 +1   38.5335427 +1     3     2     1
  H(HETATM   12 1H4  HET A   1)   1.09550844 +1  111.4515144 +1  -61.8135253 +1     4     3     2
  H(HETATM   13 2H4  HET A   1)   1.09577966 +1  111.3966015 +1   58.3218164 +1     4     3     2
  H(HETATM   14 3H4  HET A   1)   1.09554920 +1  111.2467598 +1  178.2052205 +1     4     3     2
 

          Geometry optimization using EF

          DIAGONAL MATRIX USED AS START HESSIAN

 CYCLE:     1 TIME:   0.000 TIME LEFT:  2.00D  GRAD.:     8.041 HEAT: -27.65548
 CYCLE:     2 TIME:   0.000 TIME LEFT:  2.00D  GRAD.:     4.051 HEAT: -27.84065
 CYCLE:     3 TIME:   0.016 TIME LEFT:  2.00D  GRAD.:     2.390 HEAT: -27.94218
 CYCLE:     4 TIME:   0.000 TIME LEFT:  2.00D  GRAD.:     1.746 HEAT: -27.95031
 CYCLE:     5 TIME:   0.000 TIME LEFT:  2.00D  GRAD.:     0.896 HEAT: -27.95902

     GRADIENT =  0.89636  IS LESS THAN CUTOFF =  1.00000



          VARIABLE        FUNCTION
 :       524.00000      -27.959027
*REMARK   3   HET = Not identified; C 4                            res:     1
 step=4.0 points=90 html
  Rotation barrier for C2-C3 in butane

  C(HETATM    1  C1  HET A   1)   0.00000000 +0    0.0000000 +0    0.0000000 +0
  C(HETATM    2  C2  HET A   1)   1.52886945 +1    0.0000000 +0    0.0000000 +0     1     0     0
  C(HETATM    3  C3  HET A   1)   1.53579533 +1  111.1015134 +1    0.0000000 +0     2     1     0
  C(HETATM    4  C4  HET A   1)   1.52899188 +1  111.0872401 +1  164.0000000 -1     3     2     1
  H(HETATM    5 1H1  HET A   1)   1.09563126 +1  111.4439392 +1  -61.0647602 +1     1     2     3
  H(HETATM    6 2H1  HET A   1)   1.09563306 +1  111.4149681 +1   59.0603106 +1     1     2     3
  H(HETATM    7 3H1  HET A   1)   1.09549927 +1  111.2386104 +1  179.0048184 +1     1     2     3
  H(HETATM    8 1H2  HET A   1)   1.10702288 +1  109.5678036 +1  121.7426777 +1     2     1     3
  H(HETATM    9 2H2  HET A   1)   1.10537783 +1  110.3362791 +1 -122.2100912 +1     2     1     3
  H(HETATM   10 1H3  HET A   1)   1.10513322 +1  109.6864564 +1  -73.6121052 +1     3     2     1
  H(HETATM   11 2H3  HET A   1)   1.10723625 +1  110.2242913 +1   42.4442087 +1     3     2     1
  H(HETATM   12 1H4  HET A   1)   1.09552194 +1  111.4525917 +1  -61.8663715 +1     4     3     2
  H(HETATM   13 2H4  HET A   1)   1.09576948 +1  111.4002406 +1   58.2559042 +1     4     3     2
  H(HETATM   14 3H4  HET A   1)   1.09554532 +1  111.2481404 +1  178.1459379 +1     4     3     2
 

          Geometry optimization using EF

          DIAGONAL MATRIX USED AS START HESSIAN

 CYCLE:     1 TIME:   0.000 TIME LEFT:  2.00D  GRAD.:     8.012 HEAT: -27.76079
 CYCLE:     2 TIME:   0.000 TIME LEFT:  2.00D  GRAD.:     4.059 HEAT: -27.94631
 CYCLE:     3 TIME:   0.000 TIME LEFT:  2.00D  GRAD.:     2.401 HEAT: -28.04815
 CYCLE:     4 TIME:   0.000 TIME LEFT:  2.00D  GRAD.:     1.748 HEAT: -28.05616
 CYCLE:     5 TIME:   0.016 TIME LEFT:  2.00D  GRAD.:     0.907 HEAT: -28.06490

     GRADIENT =  0.90694  IS LESS THAN CUTOFF =  1.00000



          VARIABLE        FUNCTION
 :       528.00000      -28.064906
*REMARK   3   HET = Not identified; C 4                            res:     1
 step=4.0 points=90 html
  Rotation barrier for C2-C3 in butane

  C(HETATM    1  C1  HET A   1)   0.00000000 +0    0.0000000 +0    0.0000000 +0
  C(HETATM    2  C2  HET A   1)   1.52883148 +1    0.0000000 +0    0.0000000 +0     1     0     0
  C(HETATM    3  C3  HET A   1)   1.53549477 +1  111.0455644 +1    0.0000000 +0     2     1     0
  C(HETATM    4  C4  HET A   1)   1.52893751 +1  111.0344967 +1  168.0000000 -1     3     2     1
  H(HETATM    5 1H1  HET A   1)   1.09562384 +1  111.4413882 +1  -61.0933643 +1     1     2     3
  H(HETATM    6 2H1  HET A   1)   1.09563359 +1  111.4215716 +1   59.0230044 +1     1     2     3
  H(HETATM    7 3H1  HET A   1)   1.09549383 +1  111.2395950 +1  178.9669781 +1     1     2     3
  H(HETATM    8 1H2  HET A   1)   1.10687207 +1  109.6731611 +1  121.7564085 +1     2     1     3
  H(HETATM    9 2H2  HET A   1)   1.10553278 +1  110.2892991 +1 -122.1199193 +1     2     1     3
  H(HETATM   10 1H3  HET A   1)   1.10522509 +1  109.6798807 +1  -69.7135977 +1     3     2     1
  H(HETATM   11 2H3  HET A   1)   1.10714962 +1  110.1994834 +1   46.3672688 +1     3     2     1
  H(HETATM   12 1H4  HET A   1)   1.09551471 +1  111.4485454 +1  -61.8830676 +1     4     3     2
  H(HETATM   13 2H4  HET A   1)   1.09577479 +1  111.4082516 +1   58.2287714 +1     4     3     2
  H(HETATM   14 3H4  HET A   1)   1.09553858 +1  111.2495244 +1  178.1182604 +1     4     3     2
 

          Geometry optimization using EF

          DIAGONAL MATRIX USED AS START HESSIAN

 CYCLE:     1 TIME:   0.000 TIME LEFT:  2.00D  GRAD.:     8.030 HEAT: -27.84074
 CYCLE:     2 TIME:   0.000 TIME LEFT:  2.00D  GRAD.:     4.053 HEAT: -28.02592
 CYCLE:     3 TIME:   0.000 TIME LEFT:  2.00D  GRAD.:     2.385 HEAT: -28.12659
 CYCLE:     4 TIME:   0.000 TIME LEFT:  2.00D  GRAD.:     1.725 HEAT: -28.13444
 CYCLE:     5 TIME:   0.000 TIME LEFT:  2.00D  GRAD.:     0.860 HEAT: -28.14285

     GRADIENT =  0.85978  IS LESS THAN CUTOFF =  1.00000



          VARIABLE        FUNCTION
 :       532.00000      -28.142847
*REMARK   3   HET = Not identified; C 4                            res:     1
 step=4.0 points=90 html
  Rotation barrier for C2-C3 in butane

  C(HETATM    1  C1  HET A   1)   0.00000000 +0    0.0000000 +0    0.0000000 +0
  C(HETATM    2  C2  HET A   1)   1.52878782 +1    0.0000000 +0    0.0000000 +0     1     0     0
  C(HETATM    3  C3  HET A   1)   1.53526444 +1  111.0124777 +1    0.0000000 +0     2     1     0
  C(HETATM    4  C4  HET A   1)   1.52891135 +1  111.0001769 +1  172.0000000 -1     3     2     1
  H(HETATM    5 1H1  HET A   1)   1.09561976 +1  111.4379406 +1  -61.0862589 +1     1     2     3
  H(HETATM    6 2H1  HET A   1)   1.09563182 +1  111.4294858 +1   59.0247832 +1     1     2     3
  H(HETATM    7 3H1  HET A   1)   1.09549126 +1  111.2383766 +1  178.9677115 +1     1     2     3
  H(HETATM    8 1H2  HET A   1)   1.10669925 +1  109.7792019 +1  121.7825008 +1     2     1     3
  H(HETATM    9 2H2  HET A   1)   1.10569139 +1  110.2252730 +1 -122.0345211 +1     2     1     3
  H(HETATM   10 1H3  HET A   1)   1.10562128 +1  109.6446594 +1  -65.9055643 +1     3     2     1
  H(HETATM   11 2H3  HET A   1)   1.10678650 +1  110.2119865 +1   50.1862329 +1     3     2     1
  H(HETATM   12 1H4  HET A   1)   1.09553798 +1  111.4472120 +1  -61.8617518 +1     4     3     2
  H(HETATM   13 2H4  HET A   1)   1.09575822 +1  111.4131258 +1   58.2405579 +1     4     3     2
  H(HETATM   14 3H4  HET A   1)   1.09553244 +1  111.2501155 +1  178.1369927 +1     4     3     2
 

          Geometry optimization using EF

          DIAGONAL MATRIX USED AS START HESSIAN

 CYCLE:     1 TIME:   0.000 TIME LEFT:  2.00D  GRAD.:     8.061 HEAT: -27.87954
 CYCLE:     2 TIME:   0.000 TIME LEFT:  2.00D  GRAD.:     4.084 HEAT: -28.06898
 CYCLE:     3 TIME:   0.000 TIME LEFT:  2.00D  GRAD.:     2.389 HEAT: -28.17266
 CYCLE:     4 TIME:   0.000 TIME LEFT:  2.00D  GRAD.:     1.730 HEAT: -28.18084
 CYCLE:     5 TIME:   0.000 TIME LEFT:  2.00D  GRAD.:     0.907 HEAT: -28.18992

     GRADIENT =  0.90674  IS LESS THAN CUTOFF =  1.00000



          VARIABLE        FUNCTION
 :       536.00000      -28.189928
*REMARK   3   HET = Not identified; C 4                            res:     1
 step=4.0 points=90 html
  Rotation barrier for C2-C3 in butane

  C(HETATM    1  C1  HET A   1)   0.00000000 +0    0.0000000 +0    0.0000000 +0
  C(HETATM    2  C2  HET A   1)   1.52875664 +1    0.0000000 +0    0.0000000 +0     1     0     0
  C(HETATM    3  C3  HET A   1)   1.53516797 +1  110.9867872 +1    0.0000000 +0     2     1     0
  C(HETATM    4  C4  HET A   1)   1.52888529 +1  110.9796147 +1  176.0000000 -1     3     2     1
  H(HETATM    5 1H1  HET A   1)   1.09562156 +1  111.4311576 +1  -61.0402946 +1     1     2     3
  H(HETATM    6 2H1  HET A   1)   1.09563017 +1  111.4389620 +1   59.0663072 +1     1     2     3
  H(HETATM    7 3H1  HET A   1)   1.09548609 +1  111.2391052 +1  179.0079159 +1     1     2     3
  H(HETATM    8 1H2  HET A   1)   1.10649706 +1  109.8899226 +1  121.8411465 +1     2     1     3
  H(HETATM    9 2H2  HET A   1)   1.10588259 +1  110.1436390 +1 -121.9442500 +1     2     1     3
  H(HETATM   10 1H3  HET A   1)   1.10564859 +1  109.6455486 +1  -61.9848929 +1     3     2     1
  H(HETATM   11 2H3  HET A   1)   1.10673936 +1  110.1964787 +1   54.1250736 +1     3     2     1
  H(HETATM   12 1H4  HET A   1)   1.09552403 +1  111.4395530 +1  -61.8006048 +1     4     3     2
  H(HETATM   13 2H4  HET A   1)   1.09577355 +1  111.4244410 +1   58.2995761 +1     4     3     2
  H(HETATM   14 3H4  HET A   1)   1.09552956 +1  111.2510268 +1  178.1888687 +1     4     3     2
 

                POINTS ON REACTION PATH 
                AND CORRESPONDING HEATS


     180.00000000     184.00000000     188.00000000     192.00000000     196.00000000     200.00000000     204.00000000     208.00000000
     -28.20835626     -28.19100816     -28.14135924     -28.06114105     -27.95438474     -27.82500093     -27.67852493     -27.52270456
     212.00000000     216.00000000     220.00000000     224.00000000     228.00000000     232.00000000     236.00000000     240.00000000
     -27.35859807     -27.19801100     -27.04653643     -26.91084831     -26.79675968     -26.70962862     -26.65320190     -26.62972791
     244.00000000     248.00000000     252.00000000     256.00000000     260.00000000     264.00000000     268.00000000     272.00000000
     -26.64172443     -26.68417965     -26.75561859     -26.85082781     -26.96297551     -27.08353451     -27.20129180     -27.30995857
     276.00000000     280.00000000     284.00000000     288.00000000     292.00000000     296.00000000     300.00000000     304.00000000
     -27.39793722     -27.45695188     -27.48113628     -27.46748350     -27.41536169     -27.33103924     -27.22434058     -27.12865536
     308.00000000     312.00000000     316.00000000     320.00000000     324.00000000     328.00000000     332.00000000     336.00000000
     -26.95923978     -26.76444415     -26.54401999     -26.30088452     -26.04409427     -25.77915075     -25.51402677     -25.26019526
     340.00000000     344.00000000     348.00000000     352.00000000     356.00000000     360.00000000     364.00000000     368.00000000
     -25.02379792     -24.81578454     -24.64439724     -24.51611776     -24.43600635     -24.40677895     -24.42958533     -24.50269654
     372.00000000     376.00000000     380.00000000     384.00000000     388.00000000     392.00000000     396.00000000     400.00000000
     -24.62859942     -24.80043724     -25.00538025     -25.24052174     -25.49583665     -25.75841817     -26.02383669     -26.28494546
     404.00000000     408.00000000     412.00000000     416.00000000     420.00000000     424.00000000     428.00000000     432.00000000
     -26.53341096     -26.75977793     -26.96368134     -27.13284067     -27.27054890     -27.36816674     -27.42985306     -27.45764217
     436.00000000     440.00000000     444.00000000     448.00000000     452.00000000     456.00000000     460.00000000     464.00000000
     -27.44971991     -27.41155339     -27.35510875     -27.27750561     -27.17516010     -27.06300998     -26.95010937     -26.84457758
     468.00000000     472.00000000     476.00000000     480.00000000     484.00000000     488.00000000     492.00000000     496.00000000
     -26.75214873     -26.68329492     -26.64209423     -26.63170514     -26.65414982     -26.70929880     -26.79520698     -26.90854341
     500.00000000     504.00000000     508.00000000     512.00000000     516.00000000     520.00000000     524.00000000     528.00000000
     -27.04627430     -27.19854000     -27.35869553     -27.52282888     -27.68366983     -27.82971554     -27.95902729     -28.06490598
     532.00000000     536.00000000
     -28.14284701     -28.18992806

 **********************
 *                    *
 * JOB ENDED NORMALLY *
 *                    *
 **********************



 TOTAL JOB TIME:             1.45 SECONDS

 == MOPAC DONE ==
