 *******************************************************************************
 ** Site#: 29054        For non-commercial use only    Version 18.021W 64BITS **
 *******************************************************************************
 ** Cite this program as: MOPAC2016, Version: 18.021W, James J. P. Stewart,   **
 ** Stewart Computational Chemistry, web: HTTP://OpenMOPAC.net. Days left: 364**
 *******************************************************************************
 **                                                                           **
 **                                MOPAC2016                                  **
 **                                                                           **
 *******************************************************************************

                              PM7 CALCULATION RESULTS


 *******************************************************************************
 *  CALCULATION DONE:                                Mon Jan 22 14:19:33 2018  *
 *  SYMMETRY   - SYMMETRY CONDITIONS TO BE IMPOSED
 *  T=         - A TIME OF 172800.0 SECONDS REQUESTED
 *  DUMP=N     - RESTART FILE WRITTEN EVERY  7200.000 SECONDS
 *******************************************************************************



                    PARAMETER DEPENDENCE DATA

        REFERENCE ATOM      FUNCTION NO.    DEPENDENT ATOM(S)
            2                  1               3

             DESCRIPTIONS OF THE FUNCTIONS USED
   1      BOND LENGTH    IS SET EQUAL TO THE REFERENCE BOND LENGTH   
 
 symmetry
 Optimize the transition state for narcissistic Cyclopentadiene proton shift

  ATOM    CHEMICAL      BOND LENGTH      BOND ANGLE     TWIST ANGLE 
 NUMBER    SYMBOL       (ANGSTROMS)      (DEGREES)       (DEGREES) 
   (I)                     NA:I           NB:NA:I       NC:NB:NA:I       NA    NB    NC 
     1       C          0.00000000       0.0000000       0.0000000        0     0     0
     2       H          1.40000000  *    0.0000000       0.0000000        1     0     0
     3       C          1.40000000      62.7000000  *    0.0000000        2     1     0
     4       C          1.40000000  *  110.1000000  *  -97.5000000  *     3     2     1
     5       H          1.00000000  *  109.4000000  * -120.2000000  *     1     2     3
     6       H          2.20000000  *  119.7000000  *  121.0000000  *     1     2     3
     7       H          2.20000000  *  132.1000000  *   60.5000000  *     4     3     2
     8       H          1.00000000  *  125.1000000  * -119.6000000  *     4     3     2
     9       H          1.00000000  *  110.1000000  *  119.8000000  *     3     2     1
    10       C          1.00000000  *   31.6000000  *  -70.8000000  *     6     1     2
    11       C          1.00000000  *   31.2000000  *    1.2000000  *     7     4     3
 


          CARTESIAN COORDINATES 

    NO.       ATOM           X           Y           Z

     1         C          0.0000      0.0000      0.0000
     2         H          1.4000      0.0000      0.0000
     3         C          0.7579      1.2441      0.0000
     4         C          0.6897      1.7503     -1.3035
     5         H         -0.3322     -0.4745      0.8152
     6         H         -1.0900     -0.9842     -1.6380
     7         H         -0.2555      0.9834     -3.1361
     8         H          1.0983      2.6106     -1.6083
     9         H          1.0150      1.7635      0.8149
    10         C         -0.5183     -0.2230     -1.3319
    11         C         -0.0642      0.8713     -2.1609

 General Reference for PM7:
 "Optimization of Parameters for Semiempirical Methods VI: More Modifications to the 
 NDDO Approximations and Re-optimization of Parameters", J. J. P. Stewart, J. Mol. Mod., 1:32, 19 (2013)
 http://www.springerlink.com/openurl.asp?genre=article&id=doi:10.1007/s00894-012-1667-x

           Empirical Formula: C5 H6  =    11 atoms



      MOLECULAR POINT GROUP   :   C1  


      RHF CALCULATION, NO. OF DOUBLY OCCUPIED LEVELS = 13


          Geometry optimization using EF

          DIAGONAL MATRIX USED AS START HESSIAN

 CYCLE:     1 TIME:   0.020 TIME LEFT:  2.00D  GRAD.:   213.156 HEAT:  83.09144
 CYCLE:     2 TIME:   0.016 TIME LEFT:  2.00D  GRAD.:   184.212 HEAT:  80.20634
 CYCLE:     3 TIME:   0.000 TIME LEFT:  2.00D  GRAD.:    94.201 HEAT:  76.21133
 CYCLE:     4 TIME:   0.000 TIME LEFT:  2.00D  GRAD.:    55.268 HEAT:  73.18721
 CYCLE:     5 TIME:   0.000 TIME LEFT:  2.00D  GRAD.:    91.549 HEAT:  72.53660
 CYCLE:     6 TIME:   0.000 TIME LEFT:  2.00D  GRAD.:    65.044 HEAT:  71.91872
 CYCLE:     7 TIME:   0.000 TIME LEFT:  2.00D  GRAD.:    25.617 HEAT:  71.73927
 CYCLE:     8 TIME:   0.000 TIME LEFT:  2.00D  GRAD.:    26.381 HEAT:  71.68254
 CYCLE:     9 TIME:   0.000 TIME LEFT:  2.00D  GRAD.:    10.490 HEAT:  71.59309
 CYCLE:    10 TIME:   0.016 TIME LEFT:  2.00D  GRAD.:     3.710 HEAT:  71.57315
 CYCLE:    11 TIME:   0.000 TIME LEFT:  2.00D  GRAD.:     3.840 HEAT:  71.57055
 CYCLE:    12 TIME:   0.000 TIME LEFT:  2.00D  GRAD.:     3.362 HEAT:  71.56265
 CYCLE:    13 TIME:   0.000 TIME LEFT:  2.00D  GRAD.:     1.312 HEAT:  71.55858
 CYCLE:    14 TIME:   0.000 TIME LEFT:  2.00D  GRAD.:     0.534 HEAT:  71.55760

     GRADIENT =  0.53408  IS LESS THAN CUTOFF =  1.00000



 -------------------------------------------------------------------------------
 symmetry
 Optimize the transition state for narcissistic Cyclopentadiene proton shift



     GEOMETRY OPTIMISED USING EIGENVECTOR FOLLOWING (EF).     
     SCF FIELD WAS ACHIEVED                                   


                              PM7 CALCULATION
                                                       MOPAC2016 (Version: 18.021W)
                                                       Mon Jan 22 14:19:33 2018
                                                       No. of days remaining = 364




          FINAL HEAT OF FORMATION =         71.55760 KCAL/MOL =     299.39698 KJ/MOL


          TOTAL ENERGY            =       -692.36642 EV
          ELECTRONIC ENERGY       =      -2611.07776 EV  POINT GROUP:     C1  
          CORE-CORE REPULSION     =       1918.71134 EV
          COSMO AREA              =        107.29 SQUARE ANGSTROMS
          COSMO VOLUME            =         94.36 CUBIC ANGSTROMS

          GRADIENT NORM           =          0.53408
          IONIZATION POTENTIAL    =          9.036093 EV
          HOMO LUMO ENERGIES (EV) =         -9.036  0.622
          NO. OF FILLED LEVELS    =         13
          MOLECULAR WEIGHT        =         66.1024

          MOLECULAR DIMENSIONS (Angstroms)

            Atom       Atom       Distance
            H     9    H     6     4.35175
            H     8    H     5     4.13105
            H     2    H     7     1.46326


          SCF CALCULATIONS        =         19
 
          WALL-CLOCK TIME         =          0.078 SECONDS
          COMPUTATION TIME        =          0.250 SECONDS




  ATOM    CHEMICAL      BOND LENGTH      BOND ANGLE     TWIST ANGLE 
 NUMBER    SYMBOL       (ANGSTROMS)      (DEGREES)       (DEGREES) 
   (I)                     NA:I           NB:NA:I       NC:NB:NA:I       NA    NB    NC 
     1       C          0.00000000       0.0000000       0.0000000        0     0     0
     2       H          1.42537143  *    0.0000000       0.0000000        1     0     0
     3       C          1.42537143      63.0237004  *    0.0000000        2     1     0
     4       C          1.41505339  *  110.1059644  *  -97.4199555  *     3     2     1
     5       H          1.07097748  *  109.2228699  * -120.4706211  *     1     2     3
     6       H          2.21227663  *  119.6932028  *  120.9500330  *     1     2     3
     7       H          2.20542696  *  132.2221274  *   60.7819754  *     4     3     2
     8       H          1.07014384  *  125.1766057  * -118.9809808  *     4     3     2
     9       H          1.07086496  *  109.2944644  *  120.5052222  *     3     2     1
    10       C          1.07037485  *   31.4923487  *  -71.1266189  *     6     1     2
    11       C          1.07235601  *   31.3051203  *    1.1202430  *     7     4     3

                             CARTESIAN COORDINATES

   1    C        0.000000000     0.000000000     0.000000000
   2    H        1.425371433     0.000000000     0.000000000
   3    C        0.778791740     1.270282813     0.000000000
   4    C        0.711067350     1.781634728    -1.317690682
   5    H       -0.352612453    -0.512809011     0.871598613
   6    H       -1.095863652    -0.988354571    -1.648152293
   7    H       -0.248411388     1.024879174    -3.153618152
   8    H        1.160474359     2.694766966    -1.648493805
   9    H        1.075516507     1.818355795     0.870816967
  10    C       -0.486621454    -0.172915196    -1.317116206
  11    C       -0.042853302     0.899338010    -2.108662310


           Empirical Formula: C5 H6  =    11 atoms



      MOLECULAR POINT GROUP   :   C1  


                  EIGENVALUES  
 -31.17747 -24.50608 -23.93576 -18.65700 -18.63138 -17.56452 -14.99249 -13.41757
 -12.86801 -12.85858 -12.84874  -9.76390  -9.03609   0.62183   1.31148   2.99543
   3.73671   4.50988   4.99856   5.66152   5.83511   6.04637   6.17536   6.45968
   6.56352   6.60436


              NET ATOMIC CHARGES AND DIPOLE CONTRIBUTIONS

  ATOM NO.   TYPE          CHARGE      No. of ELECS.   s-Pop       p-Pop       
    1          C          -0.251277        4.2513     1.07495     3.17633
    2          H           0.292160        0.7078     0.70784
    3          C          -0.251611        4.2516     1.07497     3.17664
    4          C          -0.197294        4.1973     1.08174     3.11556
    5          H           0.163325        0.8367     0.83667
    6          H           0.151188        0.8488     0.84881
    7          H           0.148175        0.8518     0.85182
    8          H           0.151117        0.8489     0.84888
    9          H           0.163399        0.8366     0.83660
   10          C          -0.197413        4.1974     1.08176     3.11565
   11          C          -0.171769        4.1718     1.08550     3.08626
 DIPOLE           X         Y         Z       TOTAL
 POINT-CHG.     1.319    -0.809     0.967     1.825
 HYBRID         0.328    -0.201     0.157     0.415
 SUM            1.647    -1.010     1.124     2.235


          ATOMIC ORBITAL ELECTRON POPULATIONS

     Atom    s        px        py        pz   
    1  C   1.07495   0.98627   1.11491   1.07515
    2  H   0.70784
    3  C   1.07497   1.16270   0.93875   1.07518
    4  C   1.08174   1.06216   1.06523   0.98817
    5  H   0.83667
    6  H   0.84881
    7  H   0.85182
    8  H   0.84888
    9  H   0.83660
   10  C   1.08176   1.06595   1.06153   0.98818
   11  C   1.08550   1.02134   0.99805   1.06687
 *******************************************************************************
 ** Site#: 29054        For non-commercial use only    Version 18.021W 64BITS **
 *******************************************************************************
 ** Cite this program as: MOPAC2016, Version: 18.021W, James J. P. Stewart,   **
 ** Stewart Computational Chemistry, web: HTTP://OpenMOPAC.net. Days left: 364**
 *******************************************************************************
 **                                                                           **
 **                                MOPAC2016                                  **
 **                                                                           **
 *******************************************************************************

                              PM7 CALCULATION RESULTS


 *******************************************************************************
 *  CALCULATION DONE:                                Mon Jan 22 14:19:33 2018  *
 *  OLDGEO     - PREVIOUS GEOMETRY TO BE USED
 *  FORCE      - FORCE CALCULATION SPECIFIED
 *  T=         - A TIME OF 172800.0 SECONDS REQUESTED
 *  DUMP=N     - RESTART FILE WRITTEN EVERY  7200.000 SECONDS
 *  ISOTOPE    - FORCE MATRIX WRITTEN TO DISK (CHAN. 9 )
 *******************************************************************************
oldgeo force isotope
 Optimize the transition state for narcissistic Cyclopentadiene proton shift

  ATOM    CHEMICAL      BOND LENGTH      BOND ANGLE     TWIST ANGLE 
 NUMBER    SYMBOL       (ANGSTROMS)      (DEGREES)       (DEGREES) 
   (I)                     NA:I           NB:NA:I       NC:NB:NA:I       NA    NB    NC 
     1       C          0.00000000       0.0000000       0.0000000        0     0     0
     2       H          1.42537143  *    0.0000000       0.0000000        1     0     0
     3       C          1.42537143      63.0237004  *    0.0000000        2     1     0
     4       C          1.41505339  *  110.1059644  *  -97.4199555  *     3     2     1
     5       H          1.07097748  *  109.2228699  * -120.4706211  *     1     2     3
     6       H          2.21227663  *  119.6932028  *  120.9500330  *     1     2     3
     7       H          2.20542696  *  132.2221274  *   60.7819754  *     4     3     2
     8       H          1.07014384  *  125.1766057  * -118.9809808  *     4     3     2
     9       H          1.07086496  *  109.2944644  *  120.5052222  *     3     2     1
    10       C          1.07037485  *   31.4923487  *  -71.1266189  *     6     1     2
    11       C          1.07235601  *   31.3051203  *    1.1202430  *     7     4     3
 


          CARTESIAN COORDINATES 

    NO.       ATOM           X           Y           Z

     1         C          0.0000      0.0000      0.0000
     2         H          1.4254      0.0000      0.0000
     3         C          0.7788      1.2703      0.0000
     4         C          0.7111      1.7816     -1.3177
     5         H         -0.3526     -0.5128      0.8716
     6         H         -1.0959     -0.9884     -1.6482
     7         H         -0.2484      1.0249     -3.1536
     8         H          1.1605      2.6948     -1.6485
     9         H          1.0755      1.8184      0.8708
    10         C         -0.4866     -0.1729     -1.3171
    11         C         -0.0429      0.8993     -2.1087

 General Reference for PM7:
 "Optimization of Parameters for Semiempirical Methods VI: More Modifications to the 
 NDDO Approximations and Re-optimization of Parameters", J. J. P. Stewart, J. Mol. Mod., 1:32, 19 (2013)
 http://www.springerlink.com/openurl.asp?genre=article&id=doi:10.1007/s00894-012-1667-x

           Empirical Formula: C5 H6  =    11 atoms



      MOLECULAR POINT GROUP   :   C1  


      RHF CALCULATION, NO. OF DOUBLY OCCUPIED LEVELS = 13



          HEAT OF FORMATION =      71.529864 KCALS/MOLE


          CARTESIAN COORDINATE DERIVATIVES

   NUMBER  ATOM         X            Y            Z

     1       C      0.137350    -0.029395     0.053361
     2       H     -0.168267    -0.020780    -0.293144
     3       C      0.239009     0.043385     0.527121
     4       C     -0.037899    -0.198527    -0.100079
     5       H     -0.086091     0.033120    -0.016344
     6       H     -0.095482    -0.114099    -0.091088
     7       H      0.039197    -0.034916    -0.172924
     8       H     -0.018486     0.020754     0.018455
     9       H     -0.077648     0.124926    -0.072512
    10       C      0.142741     0.007734     0.152271
    11       C     -0.074427     0.167793    -0.005120
 


          GRADIENT NORM =   0.83797

          MOLECULAR WEIGHT =   66.10



          ROTATIONAL CONSTANTS IN CM(-1)

          A =    0.28370143   B =    0.28299726   C =    0.14536141



           PRINCIPAL MOMENTS OF INERTIA IN UNITS OF 10**(-40)*GRAM-CM**2

          A =       98.6698   B =       98.9154   C =      192.5736


          ORIENTATION OF MOLECULE IN FORCE CALCULATION

    NO.       ATOM         X         Y         Z

     1          C      -0.2045   -0.7481    0.9337
     2          H       1.2209   -0.7481    0.9337
     3          C       0.5743    0.5222    0.9337
     4          C       0.5066    1.0335   -0.3840
     5          H      -0.5571   -1.2609    1.8053
     6          H      -1.3003   -1.7364   -0.7145
     7          H      -0.4529    0.2768   -2.2199
     8          H       0.9560    1.9467   -0.7148
     9          H       0.8711    1.0703    1.8045
    10          C      -0.6911   -0.9210   -0.3834
    11          C      -0.2473    0.1513   -1.1750


    FIRST DERIVATIVES WILL BE USED IN THE CALCULATION OF SECOND DERIVATIVES

    FOR POINT-GROUP C1   THERE ARE   1 UNIQUE SYMMETRY FUNCTIONS.

 STEP:   1 TIME =     0.00 SECS, INTEGRAL =      0.00 TIME LEFT: 172800.00
 STEP:   2 TIME =     0.01 SECS, INTEGRAL =      0.01 TIME LEFT: 172799.99
 STEP:   3 TIME =     0.00 SECS, INTEGRAL =      0.01 TIME LEFT: 172799.99
 STEP:   4 TIME =     0.00 SECS, INTEGRAL =      0.01 TIME LEFT: 172799.99
 STEP:   5 TIME =     0.02 SECS, INTEGRAL =      0.03 TIME LEFT: 172799.97
 STEP:   6 TIME =     0.00 SECS, INTEGRAL =      0.03 TIME LEFT: 172799.97
 STEP:   7 TIME =     0.00 SECS, INTEGRAL =      0.03 TIME LEFT: 172799.97
 STEP:   8 TIME =     0.02 SECS, INTEGRAL =      0.05 TIME LEFT: 172799.95
 STEP:   9 TIME =     0.00 SECS, INTEGRAL =      0.05 TIME LEFT: 172799.95
 STEP:  10 TIME =     0.00 SECS, INTEGRAL =      0.05 TIME LEFT: 172799.95
 STEP:  11 TIME =     0.01 SECS, INTEGRAL =      0.06 TIME LEFT: 172799.94
 STEP:  12 TIME =     0.00 SECS, INTEGRAL =      0.06 TIME LEFT: 172799.94
 STEP:  13 TIME =     0.02 SECS, INTEGRAL =      0.08 TIME LEFT: 172799.92
 STEP:  14 TIME =     0.00 SECS, INTEGRAL =      0.08 TIME LEFT: 172799.92
 STEP:  15 TIME =     0.00 SECS, INTEGRAL =      0.08 TIME LEFT: 172799.92
 STEP:  16 TIME =     0.01 SECS, INTEGRAL =      0.09 TIME LEFT: 172799.91
 STEP:  17 TIME =     0.00 SECS, INTEGRAL =      0.09 TIME LEFT: 172799.91
 STEP:  18 TIME =     0.00 SECS, INTEGRAL =      0.09 TIME LEFT: 172799.91
 STEP:  19 TIME =     0.02 SECS, INTEGRAL =      0.11 TIME LEFT: 172799.89
 STEP:  20 TIME =     0.00 SECS, INTEGRAL =      0.11 TIME LEFT: 172799.89
 STEP:  21 TIME =     0.00 SECS, INTEGRAL =      0.11 TIME LEFT: 172799.89
 STEP:  22 TIME =     0.02 SECS, INTEGRAL =      0.12 TIME LEFT: 172799.88
 STEP:  23 TIME =     0.00 SECS, INTEGRAL =      0.12 TIME LEFT: 172799.88
 STEP:  24 TIME =     0.00 SECS, INTEGRAL =      0.12 TIME LEFT: 172799.88
 STEP:  25 TIME =     0.01 SECS, INTEGRAL =      0.14 TIME LEFT: 172799.86
 STEP:  26 TIME =     0.00 SECS, INTEGRAL =      0.14 TIME LEFT: 172799.86
 STEP:  27 TIME =     0.00 SECS, INTEGRAL =      0.14 TIME LEFT: 172799.86
 STEP:  28 TIME =     0.02 SECS, INTEGRAL =      0.16 TIME LEFT: 172799.84
 STEP:  29 TIME =     0.00 SECS, INTEGRAL =      0.16 TIME LEFT: 172799.84
 STEP:  30 TIME =     0.00 SECS, INTEGRAL =      0.16 TIME LEFT: 172799.84
 STEP:  31 TIME =     0.01 SECS, INTEGRAL =      0.17 TIME LEFT: 172799.83
 STEP:  32 TIME =     0.00 SECS, INTEGRAL =      0.17 TIME LEFT: 172799.83
 STEP:  33 TIME =     0.00 SECS, INTEGRAL =      0.17 TIME LEFT: 172799.83

(To convert to Hartree/Bohr^2, multiply by (10^(-21) x N x a0^2)/(4.184 x 627.51) =  0.0642)


           FORCE MATRIX IN MILLIDYNES/ANGSTROM


                  C  1       H  2       C  3       C  4       H  5       H  6
 ------------------------------------------------------------------------------
     C    1  12.928286
     H    2   2.417740   2.827850
     C    3   5.120324   2.422379  12.911424
     C    4   2.002585   1.281830   5.570943  14.998069
     H    5   3.562019   0.304630   0.567550   0.107687   4.399989
     H    6   0.676315   0.022948   0.060913   0.078427   0.016353   4.447524
     H    7   0.080590   0.013937   0.080468   0.671451   0.007639   0.019288
     H    8   0.061572   0.022956   0.677138   3.609141   0.011994   0.006547
     H    9   0.565298   0.301047   3.563956   0.654979   0.014823   0.011803
     C   10   5.591002   1.282099   2.002294   2.226119   0.657105   3.607680
     C   11   2.374899   0.992354   2.374534   5.995240   0.115467   0.668067


                  H  7       H  8       H  9       C 10       C 11
 ------------------------------------------------------------------
     H    7   4.444954
     H    8   0.019272   4.449424
     H    9   0.007693   0.016265   4.400805
     C   10   0.671102   0.078067   0.103633  14.998107
     C   11   3.604381   0.667718   0.111499   5.978817  15.180093


          HEAT OF FORMATION =      71.529864 KCALS/MOLE

          ZERO POINT ENERGY      53.562 KCAL/MOL

         NOTE: SYSTEM IS NOT A GROUND STATE, THEREFORE ZERO POINT
         ENERGY IS NOT MEANINGFULL. ZERO POINT ENERGY PRINTED
         DOES NOT INCLUDE THE  1 IMAGINARY FREQUENCIES


           NORMAL COORDINATE ANALYSIS (Total motion = 1 Angstrom)


   Root No.       1         2         3         4         5         6         7         8

                 1 A       2 A       3 A       4 A       5 A       6 A       7 A       8 A   

               -1628.5     502.4     503.2     776.0     803.2     812.0     891.9     912.6
  
           1   -0.0659   -0.0468    0.0269    0.0190   -0.0283   -0.0086    0.0228    0.0058
           2    0.0063    0.0326   -0.0184   -0.0114   -0.0756   -0.0166   -0.0173   -0.0107
           3   -0.0160    0.0124   -0.0073    0.0021    0.0863   -0.0433   -0.0081   -0.0012
           4    0.3145   -0.0420    0.0273    0.0060   -0.0405   -0.0149    0.0123    0.0260
           5    0.5114   -0.0771    0.0117   -0.0032   -0.0659    0.0094   -0.0074    0.0421
           6   -0.0012   -0.0260   -0.0954    0.1763   -0.0008    0.0067    0.0939    0.0004
           7    0.0352    0.0574   -0.0018    0.0190   -0.0547    0.0110    0.0260   -0.0119
           8   -0.0559   -0.0309    0.0008   -0.0120   -0.0594    0.0147   -0.0127    0.0002
           9    0.0163   -0.0143    0.0001    0.0020   -0.0858   -0.0438   -0.0083    0.0010
          10   -0.0098   -0.0480   -0.0342   -0.0057    0.0185    0.0469   -0.0200   -0.0409
          11   -0.0037    0.0273    0.0218   -0.0185    0.0591    0.0667    0.0118    0.0262
          12   -0.0265    0.0147    0.0106   -0.0012   -0.0574   -0.0076    0.0049    0.0068
          13    0.0620   -0.1199    0.0999   -0.1215   -0.0101   -0.0587   -0.0946   -0.0988
          14   -0.0467    0.1091   -0.0648    0.0824   -0.0689    0.1145    0.0972    0.0747
          15   -0.0039    0.0266   -0.0052    0.0021    0.0939    0.0146    0.0131    0.0071
          16    0.0067    0.0682   -0.1652   -0.1172    0.0629   -0.1150    0.1024   -0.2334
          17   -0.0020   -0.0447    0.1037    0.0907    0.0594    0.0013   -0.0644    0.1511
          18   -0.0083   -0.0197    0.0478    0.0457   -0.0232   -0.0378   -0.0327    0.0666
          19   -0.0025    0.0482    0.1761   -0.0939   -0.0314   -0.0406    0.2030   -0.0032
          20   -0.0047   -0.0283   -0.1083    0.0576   -0.0507    0.0247   -0.1244   -0.0055
          21   -0.0002   -0.0125   -0.0463    0.0025   -0.0002    0.1089   -0.0555    0.0001
          22   -0.0047   -0.1442   -0.1065   -0.1346    0.0248   -0.0547    0.1022    0.2415
          23    0.0049    0.0847    0.0648    0.0637    0.0822    0.1031   -0.0610   -0.1399
          24    0.0081    0.0409    0.0307    0.0458    0.0231   -0.0374   -0.0325   -0.0676
          25   -0.0685    0.1830    0.0093   -0.1289   -0.0556   -0.1302   -0.1308    0.1087
          26    0.0330   -0.0793   -0.0213    0.0708   -0.0407    0.0005    0.0404   -0.0536
          27    0.0041   -0.0256    0.0094    0.0019   -0.0937    0.0144    0.0132   -0.0066
          28    0.0011    0.0221   -0.0541    0.0140    0.0447   -0.0380   -0.0197    0.0415
          29   -0.0104   -0.0158    0.0335    0.0135    0.0436   -0.0718    0.0126   -0.0246
          30    0.0265   -0.0073    0.0169   -0.0012    0.0573   -0.0074    0.0049   -0.0068
          31    0.0136    0.0159    0.0597    0.0031    0.0241    0.0235   -0.0254    0.0020
          32    0.0220   -0.0102   -0.0365   -0.0020    0.0395   -0.0143    0.0155    0.0032
          33   -0.0002   -0.0041   -0.0153   -0.0247   -0.0003    0.0962    0.0066    0.0001


   Root No.       9        10        11        12        13        14        15        16

                 9 A      10 A      11 A      12 A      13 A      14 A      15 A      16 A   

                 988.8    1014.7    1035.6    1117.3    1128.5    1175.6    1176.4    1249.8
  
           1   -0.0179    0.0000    0.0344    0.0205   -0.0031   -0.0003    0.0030    0.0385
           2   -0.0210    0.0232   -0.0356    0.0455   -0.0048   -0.0080   -0.0051    0.0683
           3    0.0004    0.0015   -0.0107   -0.0225    0.0180    0.0117    0.0016   -0.0078
           4   -0.0386    0.0155    0.0766    0.0248   -0.0014    0.0112    0.0011    0.0690
           5    0.0248   -0.0101    0.1242   -0.0151   -0.0028    0.0187   -0.0016   -0.0423
           6    0.2370   -0.1269   -0.0011    0.2011    0.0005   -0.0085   -0.1666    0.0228
           7    0.0103   -0.0204   -0.0473   -0.0314   -0.0033   -0.0061    0.0065   -0.0434
           8    0.0255   -0.0105    0.0143   -0.0389   -0.0055   -0.0034   -0.0001   -0.0652
           9    0.0004    0.0016    0.0107   -0.0223   -0.0182   -0.0114    0.0026   -0.0079
          10    0.0089    0.0370    0.0204    0.0025   -0.0127    0.0026    0.0005   -0.0116
          11   -0.0002   -0.0229   -0.0159    0.0205   -0.0188    0.0009    0.0007   -0.0154
          12   -0.0084   -0.0066   -0.0081    0.0020    0.0158    0.0001    0.0018    0.0050
          13    0.0254    0.0187   -0.1669    0.0715    0.1542   -0.0638   -0.2014   -0.0403
          14   -0.1703    0.0529    0.1869   -0.0233    0.1125   -0.0442   -0.1134   -0.0327
          15   -0.0712    0.0274    0.0392   -0.0344    0.1477   -0.0365   -0.1457   -0.0924
          16   -0.0499   -0.1239    0.0709    0.0096   -0.0282    0.0090    0.0027    0.0118
          17    0.0438    0.0644   -0.0389   -0.1087    0.0260   -0.0916   -0.0423    0.1004
          18   -0.0424    0.0818   -0.0433    0.2058   -0.0894    0.2153    0.0980   -0.1811
          19    0.1023    0.1900    0.0023   -0.0081    0.1120    0.1779   -0.0049    0.0126
          20   -0.0626   -0.1171    0.0038    0.0040    0.1827    0.2894   -0.0146   -0.0056
          21   -0.0174   -0.0570    0.0000   -0.0006   -0.0001    0.0003    0.0121    0.0440
          22   -0.0613   -0.1126   -0.0669    0.1008    0.0371   -0.0820    0.0460   -0.0844
          23    0.0245    0.0807    0.0458    0.0406   -0.0129   -0.0314    0.0193   -0.0559
          24   -0.0421    0.0821    0.0438    0.2037    0.0917   -0.2046    0.1149   -0.1813
          25    0.1651   -0.0391    0.2398    0.0532    0.0303   -0.0095    0.0102    0.0105
          26    0.0546   -0.0407   -0.0639   -0.0556    0.1883   -0.0551    0.2363    0.0490
          27   -0.0719    0.0278   -0.0384   -0.0329   -0.1485    0.0232   -0.1482   -0.0915
          28    0.0042    0.0374   -0.0234   -0.0169   -0.0111   -0.0002   -0.0003    0.0085
          29   -0.0078   -0.0227    0.0108   -0.0113   -0.0199    0.0025   -0.0008    0.0174
          30   -0.0084   -0.0066    0.0081    0.0023   -0.0157    0.0001    0.0017    0.0053
          31   -0.0174   -0.0496    0.0028    0.0041    0.0047    0.0005    0.0026    0.0097
          32    0.0107    0.0304    0.0048   -0.0025    0.0076    0.0008   -0.0016   -0.0061
          33    0.0167    0.0071    0.0000   -0.0051   -0.0000    0.0005    0.0121    0.0456


   Root No.      17        18        19        20        21        22        23        24

                17 A      18 A      19 A      20 A      21 A      22 A      23 A      24 A   

                1297.3    1435.7    1443.5    1539.5    1552.2    2165.0    2778.5    2780.0
  
           1    0.0137    0.0384   -0.0111    0.0255   -0.0118   -0.0458    0.0121    0.0052
           2    0.0163    0.0201   -0.0059    0.0176    0.0049   -0.0142    0.0189    0.0082
           3    0.0197    0.0775   -0.0911    0.0587   -0.0526    0.0008   -0.0301   -0.0189
           4    0.0169    0.0293   -0.1360    0.0202    0.0027    0.7166    0.0082    0.0078
           5    0.0279   -0.0482   -0.2103    0.0322   -0.0041   -0.4403    0.0105   -0.0063
           6   -0.0001    0.0053    0.0000    0.0000   -0.0092    0.0498   -0.0005   -0.0030
           7    0.0085   -0.0005    0.0003    0.0035   -0.0101   -0.0081    0.0094   -0.0070
           8    0.0199   -0.0447   -0.0019    0.0310    0.0055    0.0473    0.0161   -0.0119
           9   -0.0196    0.0939    0.0706   -0.0621   -0.0471    0.0007    0.0230   -0.0242
          10   -0.0089    0.0325   -0.0474   -0.0310    0.0531   -0.0023    0.0015    0.0031
          11   -0.0085    0.0812   -0.0316   -0.0679    0.0324    0.0015    0.0018    0.0067
          12   -0.0203   -0.0520   -0.1024    0.0294    0.1222   -0.0032    0.0021   -0.0037
          13   -0.0924   -0.0492    0.0390   -0.0673   -0.0334   -0.0123   -0.1582   -0.0893
          14   -0.0869   -0.0446    0.0441   -0.0751   -0.0252   -0.0040   -0.2325   -0.1309
          15   -0.0840    0.0193   -0.0157   -0.0350   -0.0692   -0.0003    0.3955    0.2228
          16   -0.0040   -0.0567    0.0126   -0.0352   -0.0065   -0.0043    0.0099    0.0703
          17    0.0652   -0.0388    0.0070   -0.0699    0.0376   -0.0078    0.0124    0.0937
          18   -0.1675   -0.1043    0.0047    0.0259   -0.1188    0.0083    0.0050    0.0387
          19    0.0900   -0.0077    0.0609   -0.0802   -0.0146    0.0001    0.0009    0.0093
          20    0.1470    0.0185    0.0955   -0.1295    0.0168   -0.0000   -0.0014   -0.0056
          21   -0.0002   -0.0767    0.0093   -0.0028   -0.0852   -0.0025    0.0064    0.0472
          22    0.0606    0.0085   -0.0017   -0.0488   -0.0321    0.0048   -0.0092   -0.0479
          23    0.0264    0.0692   -0.0020   -0.0636   -0.0054    0.0073   -0.0178   -0.0979
          24    0.1689   -0.1033    0.0203   -0.0341   -0.1159    0.0082    0.0069    0.0360
          25   -0.0352    0.0212    0.0162   -0.0357    0.0104   -0.0021   -0.1065    0.1003
          26   -0.1213    0.0739    0.0395   -0.0906    0.0491    0.0127   -0.1941    0.1834
          27    0.0841    0.0216    0.0105    0.0301   -0.0719   -0.0005   -0.3108    0.2934
          28   -0.0037   -0.0576    0.0071   -0.0467   -0.0006   -0.0023   -0.0006   -0.0050
          29   -0.0119   -0.0755   -0.0395   -0.0625   -0.0567    0.0015    0.0002   -0.0065
          30    0.0203   -0.0304    0.1120   -0.0211    0.1248   -0.0033   -0.0032   -0.0034
          31   -0.0127   -0.0082    0.0519    0.0695   -0.0245   -0.0004   -0.0010   -0.0005
          32   -0.0207    0.0163    0.0812    0.1151    0.0081    0.0002   -0.0015    0.0005
          33   -0.0001   -0.0690    0.0084   -0.0037   -0.1078   -0.0002   -0.0004   -0.0031


   Root No.      25        26        27

                25 A      26 A      27 A   

                2789.6    2793.0    2804.2
  
           1    0.0018   -0.0008    0.0031
           2    0.0023   -0.0009    0.0052
           3   -0.0013   -0.0004   -0.0077
           4    0.0013    0.0011    0.0017
           5   -0.0009    0.0018   -0.0010
           6   -0.0003    0.0002   -0.0024
           7   -0.0012   -0.0001   -0.0033
           8   -0.0025   -0.0006   -0.0052
           9   -0.0013    0.0017   -0.0077
          10   -0.0063   -0.0139   -0.0089
          11   -0.0117   -0.0286   -0.0185
          12    0.0017    0.0108    0.0068
          13   -0.0119    0.0018   -0.0343
          14   -0.0180    0.0025   -0.0509
          15    0.0312   -0.0039    0.0863
          16   -0.1229    0.2449   -0.1320
          17   -0.1646    0.3276   -0.1765
          18   -0.0670    0.1328   -0.0717
          19    0.0893    0.0081   -0.0418
          20   -0.0545   -0.0050    0.0255
          21    0.4527    0.0412   -0.2123
          22    0.0714    0.1828    0.1068
          23    0.1448    0.3712    0.2171
          24   -0.0528   -0.1343   -0.0787
          25    0.0105   -0.0029    0.0301
          26    0.0185   -0.0051    0.0544
          27    0.0307   -0.0085    0.0872
          28    0.0096   -0.0191    0.0114
          29    0.0136   -0.0251    0.0150
          30    0.0028   -0.0111    0.0062
          31   -0.0069   -0.0027    0.0036
          32    0.0044   -0.0029   -0.0023
          33   -0.0350   -0.0033    0.0183


           MASS-WEIGHTED COORDINATE ANALYSIS (NORMAL COORDINATES)


   Root No.       1         2         3         4         5         6         7         8

                 1 A       2 A       3 A       4 A       5 A       6 A       7 A       8 A   

               -1628.5     502.4     503.2     776.0     803.2     812.0     891.9     912.6
  
           1   -0.3182   -0.3157    0.1775    0.1624   -0.1280   -0.0464    0.1841    0.0398
           2    0.0306    0.2196   -0.1217   -0.0974   -0.3425   -0.0894   -0.1395   -0.0731
           3   -0.0775    0.0833   -0.0485    0.0182    0.3909   -0.2335   -0.0656   -0.0082
           4    0.4403   -0.0820    0.0521    0.0149   -0.0531   -0.0233    0.0286    0.0512
           5    0.7160   -0.1506    0.0224   -0.0079   -0.0865    0.0147   -0.0174    0.0829
           6   -0.0016   -0.0508   -0.1824    0.4364   -0.0011    0.0104    0.2195    0.0009
           7    0.1703    0.3867   -0.0121    0.1625   -0.2479    0.0593    0.2094   -0.0807
           8   -0.2699   -0.2086    0.0050   -0.1027   -0.2694    0.0793   -0.1022    0.0015
           9    0.0788   -0.0963    0.0006    0.0169   -0.3888   -0.2360   -0.0671    0.0068
          10   -0.0476   -0.3236   -0.2255   -0.0484    0.0836    0.2530   -0.1610   -0.2782
          11   -0.0178    0.1842    0.1439   -0.1582    0.2678    0.3596    0.0955    0.1779
          12   -0.1281    0.0994    0.0701   -0.0103   -0.2602   -0.0410    0.0396    0.0466
          13    0.0868   -0.2340    0.1909   -0.3007   -0.0133   -0.0916   -0.2211   -0.1947
          14   -0.0654    0.2131   -0.1238    0.2040   -0.0905    0.1788    0.2272    0.1472
          15   -0.0055    0.0520   -0.0099    0.0051    0.1232    0.0228    0.0306    0.0140
          16    0.0094    0.1332   -0.3158   -0.2901    0.0825   -0.1796    0.2393   -0.4601
          17   -0.0029   -0.0873    0.1983    0.2244    0.0779    0.0020   -0.1504    0.2978
          18   -0.0117   -0.0385    0.0913    0.1130   -0.0305   -0.0591   -0.0764    0.1313
          19   -0.0035    0.0940    0.3367   -0.2324   -0.0412   -0.0634    0.4743   -0.0064
          20   -0.0066   -0.0552   -0.2071    0.1425   -0.0666    0.0386   -0.2907   -0.0109
          21   -0.0002   -0.0244   -0.0886    0.0062   -0.0003    0.1701   -0.1297    0.0002
          22   -0.0065   -0.2815   -0.2037   -0.3332    0.0325   -0.0855    0.2388    0.4759
          23    0.0069    0.1653    0.1238    0.1577    0.1079    0.1610   -0.1426   -0.2758
          24    0.0114    0.0799    0.0587    0.1133    0.0303   -0.0584   -0.0759   -0.1333
          25   -0.0959    0.3572    0.0179   -0.3192   -0.0730   -0.2033   -0.3056    0.2142
          26    0.0462   -0.1549   -0.0408    0.1754   -0.0534    0.0008    0.0944   -0.1056
          27    0.0057   -0.0501    0.0180    0.0047   -0.1230    0.0224    0.0307   -0.0129
          28    0.0053    0.1491   -0.3569    0.1198    0.2023   -0.2051   -0.1592    0.2826
          29   -0.0501   -0.1064    0.2213    0.1154    0.1975   -0.3870    0.1019   -0.1674
          30    0.1283   -0.0493    0.1112   -0.0105    0.2597   -0.0397    0.0398   -0.0463
          31    0.0655    0.1073    0.3943    0.0268    0.1090    0.1266   -0.2049    0.0133
          32    0.1061   -0.0687   -0.2406   -0.0168    0.1788   -0.0772    0.1253    0.0218
          33   -0.0009   -0.0278   -0.1008   -0.2109   -0.0012    0.5188    0.0536    0.0010


   Root No.       9        10        11        12        13        14        15        16

                 9 A      10 A      11 A      12 A      13 A      14 A      15 A      16 A   

                 988.8    1014.7    1035.6    1117.3    1128.5    1175.6    1176.4    1249.8
  
           1   -0.1432    0.0001    0.2402    0.1431   -0.0231   -0.0024    0.0226    0.2425
           2   -0.1686    0.1669   -0.2486    0.3173   -0.0365   -0.0566   -0.0387    0.4295
           3    0.0033    0.0111   -0.0748   -0.1570    0.1353    0.0831    0.0120   -0.0491
           4   -0.0897    0.0324    0.1548    0.0501   -0.0030    0.0230    0.0024    0.1257
           5    0.0576   -0.0210    0.2511   -0.0304   -0.0060    0.0384   -0.0034   -0.0770
           6    0.5504   -0.2649   -0.0023    0.4063    0.0010   -0.0174   -0.3629    0.0415
           7    0.0824   -0.1472   -0.3305   -0.2191   -0.0250   -0.0432    0.0490   -0.2728
           8    0.2042   -0.0758    0.0998   -0.2716   -0.0411   -0.0242   -0.0008   -0.4101
           9    0.0033    0.0116    0.0746   -0.1554   -0.1374   -0.0813    0.0198   -0.0497
          10    0.0711    0.2665    0.1426    0.0178   -0.0955    0.0182    0.0035   -0.0731
          11   -0.0017   -0.1648   -0.1113    0.1430   -0.1416    0.0064    0.0052   -0.0970
          12   -0.0674   -0.0476   -0.0567    0.0141    0.1192    0.0007    0.0134    0.0318
          13    0.0590    0.0390   -0.3375    0.1446    0.3366   -0.1314   -0.4386   -0.0734
          14   -0.3956    0.1103    0.3779   -0.0470    0.2456   -0.0910   -0.2470   -0.0597
          15   -0.1654    0.0572    0.0793   -0.0696    0.3223   -0.0750   -0.3173   -0.1684
          16   -0.1158   -0.2585    0.1434    0.0195   -0.0615    0.0185    0.0059    0.0214
          17    0.1019    0.1344   -0.0787   -0.2196    0.0568   -0.1886   -0.0921    0.1829
          18   -0.0986    0.1708   -0.0876    0.4158   -0.1951    0.4431    0.2135   -0.3300
          19    0.2375    0.3966    0.0046   -0.0163    0.2445    0.3661   -0.0106    0.0230
          20   -0.1455   -0.2444    0.0077    0.0080    0.3988    0.5957   -0.0318   -0.0102
          21   -0.0405   -0.1189    0.0000   -0.0013   -0.0002    0.0006    0.0263    0.0803
          22   -0.1425   -0.2349   -0.1352    0.2037    0.0810   -0.1688    0.1002   -0.1539
          23    0.0568    0.1684    0.0925    0.0821   -0.0281   -0.0647    0.0421   -0.1019
          24   -0.0977    0.1713    0.0887    0.4116    0.2002   -0.4211    0.2503   -0.3305
          25    0.3835   -0.0816    0.4848    0.1074    0.0661   -0.0195    0.0223    0.0191
          26    0.1269   -0.0850   -0.1293   -0.1123    0.4110   -0.1134    0.5147    0.0894
          27   -0.1670    0.0579   -0.0777   -0.0664   -0.3241    0.0477   -0.3229   -0.1668
          28    0.0334    0.2693   -0.1634   -0.1179   -0.0837   -0.0015   -0.0022    0.0532
          29   -0.0622   -0.1637    0.0757   -0.0788   -0.1503    0.0179   -0.0063    0.1093
          30   -0.0678   -0.0476    0.0568    0.0162   -0.1182    0.0005    0.0126    0.0335
          31   -0.1399   -0.3576    0.0198    0.0287    0.0351    0.0035    0.0193    0.0613
          32    0.0857    0.2191    0.0335   -0.0175    0.0571    0.0054   -0.0122   -0.0384
          33    0.1341    0.0512    0.0000   -0.0356   -0.0000    0.0034    0.0908    0.2867


   Root No.      17        18        19        20        21        22        23        24

                17 A      18 A      19 A      20 A      21 A      22 A      23 A      24 A   

                1297.3    1435.7    1443.5    1539.5    1552.2    2165.0    2778.5    2780.0
  
           1    0.1107    0.1745   -0.0465    0.1195   -0.0482   -0.1806    0.0651    0.0357
           2    0.1318    0.0914   -0.0246    0.0828    0.0200   -0.0560    0.1021    0.0564
           3    0.1590    0.3521   -0.3797    0.2756   -0.2156    0.0030   -0.1624   -0.1303
           4    0.0396    0.0386   -0.1642    0.0275    0.0033    0.8189    0.0128    0.0156
           5    0.0652   -0.0634   -0.2540    0.0438   -0.0048   -0.5031    0.0163   -0.0126
           6   -0.0001    0.0070    0.0001    0.0000   -0.0109    0.0569   -0.0008   -0.0060
           7    0.0688   -0.0022    0.0013    0.0162   -0.0413   -0.0320    0.0509   -0.0485
           8    0.1605   -0.2031   -0.0078    0.1457    0.0225    0.1866    0.0867   -0.0821
           9   -0.1585    0.4266    0.2943   -0.2913   -0.1930    0.0028    0.1240   -0.1667
          10   -0.0720    0.1475   -0.1974   -0.1454    0.2176   -0.0091    0.0078    0.0213
          11   -0.0689    0.3692   -0.1319   -0.3189    0.1329    0.0060    0.0096    0.0462
          12   -0.1643   -0.2363   -0.4267    0.1380    0.5009   -0.0127    0.0115   -0.0254
          13   -0.2161   -0.0648    0.0471   -0.0915   -0.0396   -0.0141   -0.2472   -0.1780
          14   -0.2031   -0.0587    0.0532   -0.1021   -0.0299   -0.0045   -0.3633   -0.2608
          15   -0.1964    0.0254   -0.0189   -0.0476   -0.0822   -0.0004    0.6180    0.4440
          16   -0.0094   -0.0746    0.0152   -0.0479   -0.0077   -0.0049    0.0154    0.1400
          17    0.1525   -0.0511    0.0085   -0.0950    0.0446   -0.0089    0.0194    0.1867
          18   -0.3918   -0.1373    0.0056    0.0352   -0.1411    0.0095    0.0078    0.0771
          19    0.2105   -0.0101    0.0736   -0.1090   -0.0174    0.0001    0.0014    0.0185
          20    0.3437    0.0244    0.1153   -0.1761    0.0199   -0.0000   -0.0021   -0.0111
          21   -0.0004   -0.1009    0.0112   -0.0038   -0.1012   -0.0029    0.0100    0.0940
          22    0.1418    0.0111   -0.0020   -0.0664   -0.0381    0.0055   -0.0144   -0.0955
          23    0.0617    0.0911   -0.0024   -0.0864   -0.0064    0.0083   -0.0278   -0.1950
          24    0.3949   -0.1359    0.0246   -0.0464   -0.1376    0.0094    0.0107    0.0716
          25   -0.0824    0.0279    0.0196   -0.0485    0.0123   -0.0024   -0.1663    0.1998
          26   -0.2836    0.0973    0.0477   -0.1231    0.0583    0.0145   -0.3032    0.3654
          27    0.1966    0.0285    0.0127    0.0410   -0.0853   -0.0005   -0.4856    0.5845
          28   -0.0295   -0.2618    0.0294   -0.2192   -0.0024   -0.0092   -0.0032   -0.0343
          29   -0.0962   -0.3429   -0.1648   -0.2936   -0.2322    0.0058    0.0009   -0.0447
          30    0.1637   -0.1384    0.4668   -0.0988    0.5114   -0.0131   -0.0174   -0.0232
          31   -0.1023   -0.0373    0.2163    0.3262   -0.1004   -0.0017   -0.0053   -0.0034
          32   -0.1668    0.0740    0.3383    0.5400    0.0331    0.0007   -0.0079    0.0031
          33   -0.0007   -0.3134    0.0350   -0.0172   -0.4419   -0.0008   -0.0021   -0.0210


   Root No.      25        26        27

                25 A      26 A      27 A   

                2789.6    2793.0    2804.2
  
           1    0.0108   -0.0044    0.0233
           2    0.0144   -0.0047    0.0396
           3   -0.0079   -0.0022   -0.0583
           4    0.0022    0.0017    0.0037
           5   -0.0017    0.0029   -0.0022
           6   -0.0005    0.0002   -0.0054
           7   -0.0077   -0.0003   -0.0250
           8   -0.0153   -0.0035   -0.0396
           9   -0.0082    0.0091   -0.0584
          10   -0.0390   -0.0754   -0.0679
          11   -0.0717   -0.1556   -0.1406
          12    0.0103    0.0589    0.0518
          13   -0.0212    0.0028   -0.0757
          14   -0.0321    0.0039   -0.1123
          15    0.0555   -0.0062    0.1905
          16   -0.2189    0.3857   -0.2913
          17   -0.2930    0.5159   -0.3895
          18   -0.1194    0.2091   -0.1582
          19    0.1589    0.0127   -0.0923
          20   -0.0971   -0.0079    0.0564
          21    0.8061    0.0648   -0.4684
          22    0.1271    0.2879    0.2358
          23    0.2578    0.5845    0.4791
          24   -0.0939   -0.2115   -0.1736
          25    0.0186   -0.0046    0.0664
          26    0.0329   -0.0081    0.1200
          27    0.0546   -0.0134    0.1925
          28    0.0589   -0.1040    0.0868
          29    0.0839   -0.1365    0.1142
          30    0.0174   -0.0604    0.0476
          31   -0.0424   -0.0147    0.0273
          32    0.0273   -0.0159   -0.0175
          33   -0.2151   -0.0178    0.1397


          DESCRIPTION OF VIBRATIONS


 VIBRATION    1    1A       ATOM PAIR        ENERGY CONTRIBUTION    RADIAL
 FREQ.     -1628.46        H  2 --  C  3          -60.2% (-76.9%)    54.4%
 T-DIPOLE    0.3042        C  1 --  H  2          -60.2% (-76.9%)    54.7%
 TRAVEL      0.1326        C  3 --  C  4           -2.8% (-16.6%)    56.3%
 RED. MASS   0.7958        C  1 --  C 10           -2.8% (-16.5%)    55.9%
 EFF. MASS   2.3538

 VIBRATION    2    2A       ATOM PAIR        ENERGY CONTRIBUTION    RADIAL
 FREQ.       502.42        C  3 --  C  4          +18.1% ( 74.0%)     0.0%
 T-DIPOLE    0.1370        H  2 --  C  3          +12.0% ( 60.1%)    31.0%
 TRAVEL      0.1300        C  1 --  H  2          +10.4% ( 56.2%)    26.1%
 RED. MASS   1.1131        C  4 --  C 11           +9.3% ( 53.1%)     0.0%
 EFF. MASS   7.9427

 VIBRATION    3    3A       ATOM PAIR        ENERGY CONTRIBUTION    RADIAL
 FREQ.       503.22        C 10 --  C 11          +21.1% ( 89.6%)     0.0%
 T-DIPOLE    0.2010        C  4 --  C 11          +14.7% ( 74.8%)     0.0%
 TRAVEL      0.1094        C  1 --  C 10          +10.5% ( 63.2%)     0.0%
 RED. MASS   1.1835        C  4 --  C 10           +9.9% ( 61.3%)     0.0%
 EFF. MASS  11.2008

 VIBRATION    4    4A       ATOM PAIR        ENERGY CONTRIBUTION    RADIAL
 FREQ.       775.95        H  2 --  C  3          +12.3% ( 55.8%)    11.1%
 T-DIPOLE    0.9415        C  1 --  H  2          +12.3% ( 55.8%)    10.6%
 TRAVEL      0.1656        C  4 --  H  8           +8.9% ( 47.7%)     6.4%
 RED. MASS   0.1973        H  6 --  C 10           +8.9% ( 47.6%)     6.4%
 EFF. MASS   3.1706

 VIBRATION    5    5A       ATOM PAIR        ENERGY CONTRIBUTION    RADIAL
 FREQ.       803.25        C  1 --  C  3          +13.1% (104.9%)     0.0%
 T-DIPOLE    0.0035        C  1 --  C 10           +9.1% ( 87.3%)     0.8%
 TRAVEL      0.0754        C  1 --  C 11           +9.1% ( 87.3%)    65.3%
 RED. MASS   2.5057        C  3 --  C 11           +9.1% ( 87.1%)    64.8%
 EFF. MASS  14.7579

 VIBRATION    6    6A       ATOM PAIR        ENERGY CONTRIBUTION    RADIAL
 FREQ.       812.03        C  4 --  C 10          +13.5% (103.1%)   100.0%
 T-DIPOLE    0.7858        C  4 --  C 11          +11.7% ( 96.0%)     0.1%
 TRAVEL      0.0792        C 10 --  C 11          +11.6% ( 95.9%)     0.1%
 RED. MASS   2.0325        C  3 --  C 11          +11.4% ( 95.0%)    80.2%
 EFF. MASS  13.2490        C  1 --  C 11          +11.4% ( 94.9%)    80.0%

 VIBRATION    7    7A       ATOM PAIR        ENERGY CONTRIBUTION    RADIAL
 FREQ.       891.87        H  7 --  C 11          +29.7% ( 64.7%)     0.0%
 T-DIPOLE    0.2018        C  3 --  H  9          +10.2% ( 38.0%)     0.4%
 TRAVEL      0.1645        C  1 --  H  5          +10.0% ( 37.6%)     0.4%
 RED. MASS   0.3035        H  6 --  C 10           +9.2% ( 36.0%)     0.0%
 EFF. MASS   2.7943

 VIBRATION    8    8A       ATOM PAIR        ENERGY CONTRIBUTION    RADIAL
 FREQ.       912.61        C  4 --  H  8          +34.6% ( 65.8%)     0.0%
 T-DIPOLE    0.0559        H  6 --  C 10          +34.3% ( 65.6%)     0.0%
 TRAVEL      0.1678        C  4 --  C 10           +6.7% ( 29.0%)     0.0%
 RED. MASS   0.5072        C  1 --  H  5           +5.0% ( 25.1%)     0.1%
 EFF. MASS   2.6243

 VIBRATION    9    9A       ATOM PAIR        ENERGY CONTRIBUTION    RADIAL
 FREQ.       988.79        C  1 --  H  2          +18.9% ( 57.9%)     0.8%
 T-DIPOLE    0.1327        H  2 --  C  3          +18.9% ( 57.8%)     0.8%
 TRAVEL      0.1478        C  3 --  H  9          +10.5% ( 43.1%)     7.1%
 RED. MASS   0.2637        C  1 --  H  5          +10.4% ( 42.8%)     7.5%
 EFF. MASS   3.1224

 VIBRATION   10   10A       ATOM PAIR        ENERGY CONTRIBUTION    RADIAL
 FREQ.      1014.74        H  7 --  C 11          +21.1% ( 58.4%)     0.1%
 T-DIPOLE    0.1722        H  6 --  C 10          +10.7% ( 41.6%)     0.0%
 TRAVEL      0.1161        C  4 --  H  8          +10.5% ( 41.3%)     0.0%
 RED. MASS   0.7319        C 10 --  C 11           +8.4% ( 37.0%)     0.3%
 EFF. MASS   4.9297

 VIBRATION   11   11A       ATOM PAIR        ENERGY CONTRIBUTION    RADIAL
 FREQ.      1035.56        C  1 --  H  5          +28.5% ( 51.9%)     0.0%
 T-DIPOLE    0.4653        C  3 --  H  9          +28.2% ( 51.6%)     0.0%
 TRAVEL      0.1407        C  3 --  C  4           +6.2% ( 24.3%)     0.2%
 RED. MASS   0.5525        C  1 --  C 10           +6.2% ( 24.2%)     0.2%
 EFF. MASS   3.2899

 VIBRATION   12   12A       ATOM PAIR        ENERGY CONTRIBUTION    RADIAL
 FREQ.      1117.34        C  1 --  C  3          +15.8% ( 62.7%)   100.0%
 T-DIPOLE    0.8424        H  2 --  C  3          +11.7% ( 54.0%)     1.9%
 TRAVEL      0.1064        C  1 --  H  2          +11.7% ( 54.0%)     1.9%
 RED. MASS   0.6490        H  6 --  C 10          +10.0% ( 49.9%)     4.5%
 EFF. MASS   5.3303

 VIBRATION   13   13A       ATOM PAIR        ENERGY CONTRIBUTION    RADIAL
 FREQ.      1128.49        C  3 --  H  9          +18.6% ( 54.0%)     4.4%
 T-DIPOLE    0.3969        C  1 --  H  5          +18.5% ( 53.8%)     4.2%
 TRAVEL      0.1432        H  7 --  C 11          +14.5% ( 47.6%)     0.0%
 RED. MASS   0.2642        C  3 --  C  4           +6.5% ( 31.8%)    91.4%
 EFF. MASS   2.9140

 VIBRATION   14   14A       ATOM PAIR        ENERGY CONTRIBUTION    RADIAL
 FREQ.      1175.64        H  7 --  C 11          +45.5% ( 69.6%)     0.0%
 T-DIPOLE    0.0791        H  6 --  C 10          +21.6% ( 48.0%)     0.0%
 TRAVEL      0.2163        C  4 --  H  8          +19.6% ( 45.7%)     0.0%
 RED. MASS   0.3431        C  1 --  H  5           +3.5% ( 19.4%)    11.4%
 EFF. MASS   1.2264

 VIBRATION   15   15A       ATOM PAIR        ENERGY CONTRIBUTION    RADIAL
 FREQ.      1176.44        C  3 --  H  9          +33.3% ( 58.6%)     0.1%
 T-DIPOLE    0.2564        C  1 --  H  5          +31.8% ( 57.3%)     0.1%
 TRAVEL      0.2247        H  2 --  C  3           +8.8% ( 30.2%)     0.2%
 RED. MASS   0.2912        C  1 --  H  2           +8.7% ( 30.0%)     0.3%
 EFF. MASS   1.1353

 VIBRATION   16   16A       ATOM PAIR        ENERGY CONTRIBUTION    RADIAL
 FREQ.      1249.83        C  1 --  C  3          +18.5% ( 72.5%)   100.0%
 T-DIPOLE    0.4115        C  3 --  C 11           +9.8% ( 52.7%)    65.9%
 TRAVEL      0.0807        C  1 --  C 11           +9.8% ( 52.7%)    65.6%
 RED. MASS   1.5888        C  1 --  H  2           +7.0% ( 44.7%)     4.9%
 EFF. MASS   8.2756

 VIBRATION   17   17A       ATOM PAIR        ENERGY CONTRIBUTION    RADIAL
 FREQ.      1297.32        C  4 --  H  8          +14.6% ( 44.9%)     0.2%
 T-DIPOLE    0.0392        H  6 --  C 10          +14.4% ( 44.6%)     0.2%
 TRAVEL      0.1470        H  7 --  C 11          +13.8% ( 43.6%)     0.0%
 RED. MASS   0.2466        C  1 --  H  5          +11.5% ( 39.9%)     0.1%
 EFF. MASS   2.4048        C  3 --  H  9          +11.5% ( 39.9%)     0.1%

 VIBRATION   18   18A       ATOM PAIR        ENERGY CONTRIBUTION    RADIAL
 FREQ.      1435.72        C  3 --  C  4          +13.7% ( 66.0%)    84.6%
 T-DIPOLE    0.1212        C  4 --  C 10          +11.2% ( 59.8%)    98.5%
 TRAVEL      0.0631        C  1 --  C 10          +11.0% ( 59.3%)    70.3%
 RED. MASS   2.1071        C 10 --  C 11           +9.1% ( 53.9%)    93.4%
 EFF. MASS  11.8132

 VIBRATION   19   19A       ATOM PAIR        ENERGY CONTRIBUTION    RADIAL
 FREQ.      1443.49        C  1 --  C 10          +13.5% ( 60.2%)    85.6%
 T-DIPOLE    0.4134        C  4 --  C 11          +12.6% ( 58.3%)    99.8%
 TRAVEL      0.0690        C 10 --  C 11          +11.4% ( 55.4%)    99.3%
 RED. MASS   2.0852        C  3 --  C  4          +10.4% ( 52.9%)    70.4%
 EFF. MASS   9.8048

 VIBRATION   20   20A       ATOM PAIR        ENERGY CONTRIBUTION    RADIAL
 FREQ.      1539.55        C 10 --  C 11          +15.1% ( 65.7%)    58.2%
 T-DIPOLE    0.2713        C  4 --  C 11          +14.6% ( 64.8%)    50.5%
 TRAVEL      0.0638        C  3 --  C 11          +11.3% ( 56.9%)    55.8%
 RED. MASS   2.6483        C  1 --  C 11          +11.1% ( 56.4%)    58.6%
 EFF. MASS  10.7601

 VIBRATION   21   21A       ATOM PAIR        ENERGY CONTRIBUTION    RADIAL
 FREQ.      1552.19        C  4 --  C 11          +15.8% ( 65.7%)    58.4%
 T-DIPOLE    0.4297        C 10 --  C 11          +15.4% ( 64.8%)    50.8%
 TRAVEL      0.0622        C  4 --  C 10          +15.1% ( 64.3%)    99.9%
 RED. MASS   2.9548        C  1 --  C 10           +9.3% ( 50.5%)    73.7%
 EFF. MASS  11.2242

 VIBRATION   22   22A       ATOM PAIR        ENERGY CONTRIBUTION    RADIAL
 FREQ.      2165.02        H  2 --  C  3          +48.8% ( 96.5%)    83.3%
 T-DIPOLE    0.7188        C  1 --  H  2          +48.8% ( 96.4%)    83.1%
 TRAVEL      0.1451        C  1 --  C  3           +1.0% ( 13.8%)   100.0%
 RED. MASS   0.8969        C  3 --  C 11           +0.2% (  6.9%)     1.4%
 EFF. MASS   1.4784

 VIBRATION   23   23A       ATOM PAIR        ENERGY CONTRIBUTION    RADIAL
 FREQ.      2778.49        C  1 --  H  5          +58.8% ( 78.5%)   100.0%
 T-DIPOLE    0.7652        C  3 --  H  9          +36.4% ( 61.7%)   100.0%
 TRAVEL      0.1314        C  1 --  C  3           +1.1% ( 10.6%)     0.5%
 RED. MASS   0.4886        C  1 --  C 11           +0.7% (  8.8%)    83.7%
 EFF. MASS   1.4061

 VIBRATION   24   24A       ATOM PAIR        ENERGY CONTRIBUTION    RADIAL
 FREQ.      2780.02        C  3 --  H  9          +52.6% ( 74.3%)    99.9%
 T-DIPOLE    1.2408        C  1 --  H  5          +30.3% ( 56.4%)    99.9%
 TRAVEL      0.1318        H  6 --  C 10           +6.2% ( 25.4%)   100.0%
 RED. MASS   0.3849        C  4 --  H  8           +5.3% ( 23.7%)    99.9%
 EFF. MASS   1.3969

 VIBRATION   25   25A       ATOM PAIR        ENERGY CONTRIBUTION    RADIAL
 FREQ.      2789.57        H  7 --  C 11          +69.9% ( 85.7%)   100.0%
 T-DIPOLE    0.5411        H  6 --  C 10          +15.1% ( 39.9%)    99.9%
 TRAVEL      0.1312        C  4 --  H  8           +9.4% ( 31.4%)    99.8%
 RED. MASS   0.5332        C 10 --  C 11           +1.0% ( 10.3%)     4.6%
 EFF. MASS   1.4048

 VIBRATION   26   26A       ATOM PAIR        ENERGY CONTRIBUTION    RADIAL
 FREQ.      2793.04        C  4 --  H  8          +48.4% ( 70.9%)   100.0%
 T-DIPOLE    1.0999        H  6 --  C 10          +47.3% ( 70.1%)   100.0%
 TRAVEL      0.1309        C  4 --  C 10           +1.2% ( 11.2%)     0.0%
 RED. MASS   0.4605        C  1 --  C 10           +0.7% (  8.2%)    35.6%
 EFF. MASS   1.4090

 VIBRATION   27   27A       ATOM PAIR        ENERGY CONTRIBUTION    RADIAL
 FREQ.      2804.23        C  4 --  H  8          +32.3% ( 58.3%)   100.0%
 T-DIPOLE    0.3444        H  6 --  C 10          +26.8% ( 53.1%)   100.0%
 TRAVEL      0.1243        H  7 --  C 11          +23.7% ( 50.0%)   100.0%
 RED. MASS   0.2500        C  3 --  H  9           +5.7% ( 24.6%)   100.0%
 EFF. MASS   1.5567

           FORCE CONSTANT IN INTERNAL COORDINATES (Millidynes/A)

    ATOM   CHEMICAL  BOND LENGTH      BOND ANGLE     TWIST ANGLE
   NUMBER   SYMBOL  FORCE CONSTANT  FORCE CONSTANT  FORCE CONSTANT

      1       C        0.000000        0.000000        0.000000
      2       H        2.738881        0.000000        0.000000
      3       C        5.138678       28.137510        0.000000
      4       C       13.787740       11.218611       30.957807
      5       H        4.312376        0.642599        0.625591
      6       H        8.800543        3.961572       13.569456
      7       H        9.016878       19.103301        2.251708
      8       H        4.359081        0.927072        0.289631
      9       H        4.313526        0.642638        0.623799
     10       C       11.494593       10.712360        0.738987
     11       C       11.570961       10.975275        0.731011
 *******************************************************************************
 ** Site#: 29054        For non-commercial use only    Version 18.021W 64BITS **
 *******************************************************************************
 ** Cite this program as: MOPAC2016, Version: 18.021W, James J. P. Stewart,   **
 ** Stewart Computational Chemistry, web: HTTP://OpenMOPAC.net. Days left: 364**
 *******************************************************************************
 **                                                                           **
 **                                MOPAC2016                                  **
 **                                                                           **
 *******************************************************************************

                              PM7 CALCULATION RESULTS


 *******************************************************************************
 *  CALCULATION DONE:                                Mon Jan 22 14:19:33 2018  *
 *  IRC=N      - INTRINSIC REACTION COORDINATE  1 DEFINED
 *  OLDGEO     - PREVIOUS GEOMETRY TO BE USED
 *  RESTART    - CALCULATION RESTARTED
 *  T=         - A TIME OF 172800.0 SECONDS REQUESTED
 *  DUMP=N     - RESTART FILE WRITTEN EVERY  7200.000 SECONDS
 *  HTML       - WRITE HTML SCRIPT TO GENERATE ANIMATION USING JSMOL
 *             - TO DISPLAY IN PDB FORMAT, ADD "PDBOUT"
 *  X-PRIOR    - GEOMETRY CHANGES TAKE PRIORITY IN DRC
 *******************************************************************************
oldgeo irc=1* restart html x-priority=0.1
 Optimize the transition state for narcissistic Cyclopentadiene proton shift

  ATOM    CHEMICAL      BOND LENGTH      BOND ANGLE     TWIST ANGLE 
 NUMBER    SYMBOL       (ANGSTROMS)      (DEGREES)       (DEGREES) 
   (I)                     NA:I           NB:NA:I       NC:NB:NA:I       NA    NB    NC 
     1       C          0.00000000       0.0000000       0.0000000        0     0     0
     2       H          1.42537143  *    0.0000000       0.0000000        1     0     0
     3       C          1.42537143      63.0237004  *    0.0000000        2     1     0
     4       C          1.41505339  *  110.1059644  *  -97.4199555  *     3     2     1
     5       H          1.07097748  *  109.2228699  * -120.4706211  *     1     2     3
     6       H          2.21227663  *  119.6932028  *  120.9500330  *     1     2     3
     7       H          2.20542696  *  132.2221274  *   60.7819754  *     4     3     2
     8       H          1.07014384  *  125.1766057  * -118.9809808  *     4     3     2
     9       H          1.07086496  *  109.2944644  *  120.5052222  *     3     2     1
    10       C          1.07037485  *   31.4923487  *  -71.1266189  *     6     1     2
    11       C          1.07235601  *   31.3051203  *    1.1202430  *     7     4     3
 


          CARTESIAN COORDINATES 

    NO.       ATOM           X           Y           Z

     1         C          0.0000      0.0000      0.0000
     2         H          1.4254      0.0000      0.0000
     3         C          0.7788      1.2703      0.0000
     4         C          0.7111      1.7816     -1.3177
     5         H         -0.3526     -0.5128      0.8716
     6         H         -1.0959     -0.9884     -1.6482
     7         H         -0.2484      1.0249     -3.1536
     8         H          1.1605      2.6948     -1.6485
     9         H          1.0755      1.8184      0.8708
    10         C         -0.4866     -0.1729     -1.3171
    11         C         -0.0429      0.8993     -2.1087

 General Reference for PM7:
 "Optimization of Parameters for Semiempirical Methods VI: More Modifications to the 
 NDDO Approximations and Re-optimization of Parameters", J. J. P. Stewart, J. Mol. Mod., 1:32, 19 (2013)
 http://www.springerlink.com/openurl.asp?genre=article&id=doi:10.1007/s00894-012-1667-x

           Empirical Formula: C5 H6  =    11 atoms



      MOLECULAR POINT GROUP   :   C1  


      RHF CALCULATION, NO. OF DOUBLY OCCUPIED LEVELS = 13


          MOLECULAR WEIGHT =   66.10


          TIME USED UP TO RESTART =                  0.17

    FOR POINT-GROUP C1   THERE ARE   1 UNIQUE SYMMETRY FUNCTIONS.

           INITIAL VELOCITY IN DRC (Angstroms/Femtosecond)
        -0.06585         0.00632        -0.01604
         0.31449         0.51144        -0.00115
         0.03524        -0.05586         0.01630
        -0.00984        -0.00368        -0.02651
         0.06199        -0.04669        -0.00390
         0.00673        -0.00205        -0.00832
        -0.00250        -0.00468        -0.00016
        -0.00466         0.00490         0.00812
        -0.06853         0.03301         0.00409
         0.00110        -0.01036         0.02654
         0.01356         0.02196        -0.00018

 GEOMETRY PRIORITY, STEP = 0.1000 ANGSTROMS



     POINT   POTENTIAL  +  ENERGY LOST   =   TOTAL      ERROR    REF%   MOVEMENT
       1      71.52982      0.00000         71.52982   0.00000     1   %  0.0000
      10      70.94203      0.56151         71.50355   0.00081     2   %  0.0999
      17      69.27720      2.20486         71.48207  -0.02067     3   %  0.1998
      25      66.75864      4.71036         71.46900  -0.03374     4   %  0.2998
      32      64.07735      7.38372         71.46107  -0.04167     5   %  0.3871
      40      60.26099     11.19135         71.45234  -0.05040     6   %  0.4996
      47      56.75600     14.68894         71.44495  -0.05779     7   %  0.5995
      55      53.32279     18.11464         71.43743  -0.06531     8   %  0.6993
      62      50.07414     21.35534         71.42948  -0.07326     9   %  0.7991
      69      47.08642     24.33469         71.42111  -0.08163    10   %  0.8988
      76      44.40781     27.00454         71.41235  -0.09039    11   %  0.9983
      83      42.05800     29.34548         71.40348  -0.09926    12   %  1.0976
      90      40.04197     31.35282         71.39479  -0.10795    13   %  1.1965
      97      38.35047     33.03593         71.38641  -0.11633    14   %  1.2948
     103      36.96749     34.41080         71.37829  -0.12445    15   %  1.3919
     110      35.86792     35.50295         71.37087  -0.13187    16   %  1.4872
     117      35.02000     36.34428         71.36428  -0.13846    17   %  1.5795
     124      34.38986     36.96904         71.35890  -0.14384    18   %  1.6666
     130      33.93413     37.42031         71.35445  -0.14829    19   %  1.7461
     136      33.59906     37.75257         71.35163  -0.15111    20   %  1.8172
     142      33.33502     38.01421         71.34923  -0.15350    21   %  1.8830
     147      33.11863     38.22951         71.34814  -0.15460    22   %  1.9461
     152      32.93469     38.41235         71.34703  -0.15571    23   %  2.0106
     156      32.78930     38.55695         71.34625  -0.15649    24   %  2.0718
     160      32.68679     38.72025         71.40705  -0.09569    25   %  2.1244
     166      32.59887     39.04848         71.64734   0.14460    26   %  2.1751
     171      32.53766     39.34711         71.88477   0.38203    27   %  2.2153
     177      32.48754     39.65759         72.14512   0.64238    28   %  2.2517
     182      32.44707     39.97902         72.42608   0.92335    29   %  2.2853
     188      32.41469     40.31064         72.72532   1.22258    30   %  2.3163
     194      32.38937     40.64668         73.03605   1.53331    31   %  2.3446
     199      32.36929     40.97805         73.34735   1.84461    32   %  2.3690
     205      32.35285     41.30406         73.65691   2.15417    33   %  2.3891
     210      32.34068     41.62769         73.96837   2.46563    34   %  2.4078
     215      32.33068     41.94868         74.27936   2.77662    35   %  2.4255
     220      32.32303     42.26551         74.58853   3.08579    36   %  2.4388
     226      32.31660     42.58237         74.89898   3.39624    37   %  2.4540
     231      32.31099     42.90076         75.21175   3.70901    38   %  2.4649
     236      32.30658     43.21668         75.52326   4.02052    39   %  2.4762
     241      32.30268     43.53466         75.83735   4.33461    40   %  2.4865
     246      32.30052     43.85296         76.15348   4.65074    41   %  2.4945
     251      32.29699     44.17100         76.46799   4.96525    42   %  2.5041
     256      32.29752     44.49029         76.78782   5.28508    43   %  2.5097
     261      32.29283     44.81077         77.10360   5.60086    44   %  2.5184
     267      32.29429     45.13079         77.42508   5.92234    45   %  2.5229
     272      32.29192     45.45254         77.74446   6.24172    46   %  2.5290
     277      32.29073     45.77737         78.06810   6.56536    47   %  2.5341
     282      32.29105     46.09997         78.39102   6.88829    48   %  2.5379
     287      32.28875     46.42041         78.70917   7.20643    49   %  2.5434
     292      32.29003     46.74111         79.03114   7.52840    50   %  2.5452
     298      32.28778     47.06192         79.34971   7.84697    51   %  2.5504
     303      32.28898     47.38377         79.67275   8.17001    52   %  2.5522
     308      32.28868     47.70676         79.99544   8.49270    53   %  2.5551
     313      32.28753     48.03081         80.31834   8.81560    54   %  2.5583
     318      32.28921     48.35442         80.64363   9.14089    55   %  2.5592
     323      32.28587     48.67878         80.96465   9.46191    56   %  2.5629
     328      32.29048     49.00236         81.29285   9.79011    57   %  2.5628
     334      32.28607     49.32775         81.61382  10.11108    58   %  2.5660
     339      32.28795     49.65327         81.94122  10.43848    59   %  2.5670
     344      32.28853     49.97927         82.26780  10.76506    60   %  2.5680
     349      32.28526     50.30319         82.58845  11.08571    61   %  2.5703
     354      32.29099     50.62671         82.91770  11.41496    62   %  2.5697
     359      32.28418     50.95395         83.23813  11.73539    63   %  2.5726
     365      32.28888     51.27740         83.56628  12.06354    64   %  2.5722
     370      32.28806     51.60257         83.89062  12.38789    65   %  2.5732
     375      32.28612     51.92858         84.21470  12.71196    66   %  2.5747
     380      32.28973     52.25317         84.54290  13.04016    67   %  2.5740
     385      32.29066     52.52273         84.81339  13.31065    68   %  2.5743
     391      32.29127     52.90031         85.19158  13.68884    69   %  2.5749
     396      32.28337     53.21386         85.49724  13.99450    70   %  2.5773
     401      32.29248     53.53531         85.82778  14.32504    71   %  2.5758
     406      32.28333     53.84940         86.13273  14.62999    72   %  2.5782
     411      32.29360     54.17072         86.46432  14.96159    73   %  2.5766
     416      32.28227     54.48758         86.76985  15.26711    74   %  2.5788
     422      32.28218     54.87555         87.15773  15.65499    75   %  2.5791
     427      32.29769     55.20424         87.50193  15.99919    76   %  2.5775
     432      32.28146     55.52708         87.80854  16.30580    77   %  2.5796
     437      32.29947     55.86186         88.16133  16.65859    78   %  2.5780
     442      32.28111     56.19403         88.47514  16.97240    79   %  2.5800
     448      32.28104     56.59756         88.87860  17.37587    80   %  2.5803
     453      32.30111     56.93962         89.24073  17.73799    81   %  2.5786
     458      32.28080     57.27811         89.55892  18.05618    82   %  2.5806
     463      32.30360     57.63019         89.93379  18.43105    83   %  2.5790
     468      32.28065     57.97537         90.25602  18.75328    84   %  2.5809
     473      32.30638     58.33999         90.64637  19.14363    85   %  2.5793
     479      32.30838     58.77285         91.08122  19.57848    86   %  2.5794
     484      32.28064     59.13076         91.41140  19.90866    87   %  2.5813
     489      32.31009     59.50746         91.81755  20.31481    88   %  2.5797
     494      32.28079     59.87495         92.15575  20.65301    89   %  2.5816
     499      32.31424     60.26933         92.58358  21.08084    90   %  2.5799
     505      32.31671     60.74350         93.06021  21.55747    91   %  2.5801
     510      32.28199     61.13994         93.42193  21.91919    92   %  2.5818


           POTENTIAL ENERGY HAS STOPPED DROPPING

           INITIAL VELOCITY IN DRC (Angstroms/Femtosecond)
         0.06585        -0.00632         0.01604
        -0.31449        -0.51144         0.00115
        -0.03524         0.05586        -0.01630
         0.00984         0.00368         0.02651
        -0.06199         0.04669         0.00390
        -0.00673         0.00205         0.00832
         0.00250         0.00468         0.00016
         0.00466        -0.00490        -0.00812
         0.06853        -0.03301        -0.00409
        -0.00110         0.01036        -0.02654
        -0.01356        -0.02196         0.00018

 GEOMETRY PRIORITY, STEP = 0.1000 ANGSTROMS



     POINT   POTENTIAL  +  ENERGY LOST   =   TOTAL      ERROR    REF%   MOVEMENT
       1      71.52982      0.00000         71.52982   0.00000     1   %  0.0000
       9      70.95960      0.53955         71.49915  -0.00496     2   %  0.1002
      17      69.32326      2.15657         71.47983  -0.02427     3   %  0.1999
      25      66.82741      4.64145         71.46886  -0.03525     4   %  0.2998
      32      64.05388      7.40824         71.46212  -0.04199     5   %  0.3904
      40      60.35020     11.10417         71.45436  -0.04974     6   %  0.4997
      47      56.84946     14.59772         71.44718  -0.05693     7   %  0.5996
      54      53.41469     18.02482         71.43950  -0.06460     8   %  0.6994
      61      50.16221     21.26912         71.43132  -0.07278     9   %  0.7991
      69      47.16694     24.25563         71.42257  -0.08154    10   %  0.8988
      76      44.47936     26.93403         71.41339  -0.09071    11   %  0.9983
      83      42.12048     29.28365         71.40413  -0.09998    12   %  1.0976
      89      40.09570     31.29923         71.39492  -0.10918    13   %  1.1965
      96      38.39586     32.99023         71.38609  -0.11801    14   %  1.2947
     103      37.00213     34.37556         71.37769  -0.12642    15   %  1.3920
     110      35.89320     35.47679         71.36999  -0.13411    16   %  1.4874
     117      35.03889     36.32434         71.36323  -0.14088    17   %  1.5797
     123      34.40410     36.95359         71.35769  -0.14642    18   %  1.6668
     130      33.94305     37.41032         71.35336  -0.15075    19   %  1.7465
     136      33.60423     37.74631         71.35054  -0.15357    20   %  1.8178
     142      33.33979     38.00825         71.34805  -0.15606    21   %  1.8832
     147      33.12305     38.22325         71.34630  -0.15781    22   %  1.9456
     152      32.93844     38.40614         71.34457  -0.15953    23   %  2.0094
     156      32.77986     38.56310         71.34296  -0.16114    24   %  2.0761
     161      32.67335     38.70435         71.37770  -0.12641    25   %  2.1315
     166      32.59286     39.00374         71.59661   0.09250    26   %  2.1787
     172      32.53157     39.30495         71.83652   0.33241    27   %  2.2187
     178      32.48092     39.62622         72.10714   0.60303    28   %  2.2562
     183      32.44106     39.96251         72.40357   0.89946    29   %  2.2905
     189      32.40938     40.30385         72.71323   1.20913    30   %  2.3212
     195      32.38456     40.64068         73.02524   1.52113    31   %  2.3482
     201      32.36465     40.96965         73.33431   1.83020    32   %  2.3727
     206      32.34997     41.29336         73.64333   2.13922    33   %  2.3931
     211      32.33879     41.61270         73.95149   2.44738    34   %  2.4097
     217      32.32847     41.92802         74.25649   2.75238    35   %  2.4276
     222      32.32141     42.24450         74.56591   3.06180    36   %  2.4409
     227      32.31524     42.55991         74.87515   3.37104    37   %  2.4540
     232      32.31033     42.87668         75.18701   3.68291    38   %  2.4664
     237      32.30504     43.19320         75.49823   3.99412    39   %  2.4759
     242      32.30373     43.51079         75.81452   4.31041    40   %  2.4870
     247      32.29823     43.82945         76.12767   4.62357    41   %  2.4939
     252      32.30012     44.14740         76.44752   4.94341    42   %  2.5038
     257      32.29359     44.46847         76.76206   5.25795    43   %  2.5088
     263      32.29588     44.78764         77.08352   5.57941    44   %  2.5173
     268      32.29216     45.10636         77.39852   5.89441    45   %  2.5218
     273      32.29187     45.42655         77.71841   6.21430    46   %  2.5275
     278      32.29173     45.74934         78.04107   6.53696    47   %  2.5326
     283      32.28919     46.07042         78.35961   6.85550    48   %  2.5360
     288      32.29138     46.39021         78.68159   7.17748    49   %  2.5415
     293      32.28773     46.71100         78.99872   7.49462    50   %  2.5431
     299      32.29039     47.03118         79.32158   7.81747    51   %  2.5483
     304      32.28818     47.35099         79.63918   8.13507    52   %  2.5499
     309      32.28823     47.67449         79.96272   8.45861    53   %  2.5528
     314      32.28942     47.99653         80.28596   8.78185    54   %  2.5557
     319      32.28618     48.32039         80.60657   9.10246    55   %  2.5567
     324      32.28475     48.59424         80.87899   9.37489    56   %  2.5581
     329      32.29328     48.91105         81.20433   9.70023    57   %  2.5621
     335      32.29113     49.29581         81.58693  10.08283    58   %  2.5635
     340      32.28745     49.62039         81.90784  10.40373    59   %  2.5640
     345      32.29152     49.91592         82.20744  10.70333    60   %  2.5664
     350      32.29013     50.26929         82.55942  11.05531    61   %  2.5672
     355      32.28449     50.59494         82.87943  11.37532    62   %  2.5666
     360      32.29193     50.91935         83.21128  11.70717    63   %  2.5696
     366      32.28477     51.24435         83.52912  12.02502    64   %  2.5686
     371      32.28817     51.57033         83.85850  12.35439    65   %  2.5702
     376      32.28380     51.86676         84.15057  12.64646    66   %  2.5696
     381      32.29333     52.18462         84.47795  12.97384    67   %  2.5724
     386      32.29252     52.54724         84.83976  13.33565    68   %  2.5728
     391      32.29282     52.81299         85.10581  13.60170    69   %  2.5734
     397      32.29231     53.19123         85.48355  13.97944    70   %  2.5738
     402      32.28357     53.50475         85.78832  14.28421    71   %  2.5720
     407      32.29271     53.81993         86.11264  14.60854    72   %  2.5745
     412      32.28313     54.13245         86.41557  14.91146    73   %  2.5727
     417      32.29456     54.45268         86.74723  15.24313    74   %  2.5752
     422      32.28281     54.77272         87.05553  15.55142    75   %  2.5732
     428      32.28238     55.15430         87.43668  15.93257    76   %  2.5735
     433      32.29461     55.47368         87.76829  16.26419    77   %  2.5758
     438      32.28241     55.79112         88.07353  16.56942    78   %  2.5738
     443      32.29583     56.11647         88.41229  16.90819    79   %  2.5762
     448      32.28187     56.43760         88.71947  17.21536    80   %  2.5741
     453      32.29738     56.76505         89.06243  17.55832    81   %  2.5764
     459      32.29880     57.16220         89.46100  17.95689    82   %  2.5766
     464      32.28124     57.48462         89.76587  18.26176    83   %  2.5744
     469      32.30160     57.82290         90.12451  18.62040    84   %  2.5768
     474      32.28075     58.16077         90.44152  18.93742    85   %  2.5746
     479      32.30533     58.51027         90.81560  19.31149    86   %  2.5770
     484      32.28063     58.85868         91.13931  19.63520    87   %  2.5747
     490      32.28064     59.28467         91.56530  20.06120    88   %  2.5747
     495      32.30821     59.65199         91.96020  20.45610    89   %  2.5771
     500      32.28071     60.00804         92.28875  20.78464    90   %  2.5748
     505      32.31294     60.39501         92.70795  21.20385    91   %  2.5772
     510      32.28106     60.76541         93.04647  21.54237    92   %  2.5748
     515      32.31607     61.16306         93.47914  21.97503    93   %  2.5772
     520      32.28188     61.55446         93.83634  22.33223    94   %  2.5748


           POTENTIAL ENERGY HAS STOPPED DROPPING


 **********************
 *                    *
 * JOB ENDED NORMALLY *
 *                    *
 **********************



 TOTAL JOB TIME:             2.52 SECONDS

 == MOPAC DONE ==
