 *******************************************************************************
 ** Site#: 37037        For non-commercial use only           Version 21.158W **
 *******************************************************************************
 ** Cite this program as: MOPAC2016, Version: 21.158W, James J. P. Stewart,   **
 ** Stewart Computational Chemistry, web: HTTP://OpenMOPAC.net. Days left: 361**
 *******************************************************************************
 **                                                                           **
 **                                MOPAC2016                                  **
 **                                                                           **
 *******************************************************************************

                              PM7 CALCULATION RESULTS

 *******************************************************************************
 *  CALCULATION DONE:                                Fri Jun 11 09:13:46 2021  *
 *  GEO_DAT    - DATA SET GEOMETRY IS IN FILE "Saddle.arc"
 *  TS         - USE EF ROUTINE FOR TS SEARCH
 *  T=         - A TIME OF 172800.0 SECONDS REQUESTED
 *  DUMP=N     - RESTART FILE WRITTEN EVERY 7200.0 SECONDS REQUESTED
 *******************************************************************************
 TS geo_dat="Saddle.arc"
 Refine transition state, starting with the geometry from SADDLE

   ATOM                 CHEMICAL                   X               Y               Z
  NUMBER                 SYMBOL               (ANGSTROMS)     (ANGSTROMS)     (ANGSTROMS)
 
     1       C(HETATM    1  C1  HET A   1)    0.28333955  *  -0.04078973  *   0.03834087  *
     2       C(HETATM    2  C2  HET A   1)   -0.78887007  *  -0.77957513  *   0.43095339  *
     3       C(HETATM    3  C3  HET A   1)   -0.65809791  *  -2.20191914  *   0.60065077  *
     4       C(HETATM    4  C4  HET A   1)    0.51488650  *  -2.82674972  *   0.36584596  *
     5       C(HETATM    5  C5  HET A   1)    1.73240561  *  -2.09007128  *  -0.01859711  *
     6       C(HETATM    6  C6  HET A   1)    1.60837277  *  -0.62245267  *  -0.09869694  *
     7       C(HETATM    7  C7  HET A   1)    0.11012117  *   1.36149020  *  -0.37428918  *
     8       O(HETATM    8  O1  HET A   1)    0.95496999  *   2.11692757  *  -0.80049327  *
     9       O(HETATM    9  O2  HET A   1)   -1.18198676  *   1.76642158  *  -0.29097579  *
    10       O(HETATM   10  O3  HET A   1)    2.38523991  *  -0.14912712  *  -1.16536938  *
    11       O(HETATM   11  O4  HET A   1)    2.68724994  *  -2.62450650  *   1.12954465  *
    12       C(HETATM   12  C8  HET A   1)    3.58572857  *  -1.86441468  *   1.67274498  *
    13       C(HETATM   13  C9  HET A   1)    3.94053140  *  -0.62231668  *   1.20153694  *
    14       C(HETATM   14  C10 HET A   1)    4.26203769  *  -2.53131637  *   2.84756439  *
    15       O(HETATM   15  O5  HET A   1)    4.36107008  *  -3.71004389  *   3.04987057  *
    16       O(HETATM   16  O6  HET A   1)    4.90704667  *  -1.62621083  *   3.62549928  *
    17       H(HETATM   17 1H2  HET A   1)   -1.78057253  *  -0.33745458  *   0.55128378  *
    18       H(HETATM   18 1H3  HET A   1)   -1.55798091  *  -2.76233353  *   0.86084319  *
    19       H(HETATM   19  H4  HET A   1)    0.61520925  *  -3.90943709  *   0.42931536  *
    20       H(HETATM   20  H5  HET A   1)    2.33326978  *  -2.53689843  *  -0.84283053  *
    21       H(HETATM   21 1H6  HET A   1)    4.10090661  *  -0.43872761  *   0.12843581  *
    22       H(HETATM   22 2H2  HET A   1)   -1.32538870  *   2.68825662  *  -0.62958613  *
    23       H(HETATM   23 2H3  HET A   1)    2.21911276  *   0.81606246  *  -1.30115875  *
    24       H(HETATM   24 1H9  HET A   1)    4.55259764  *   0.04883094  *   1.79123801  *
    25       H(HETATM   25 2H9  HET A   1)    2.56233288  *  -0.15931707  *   0.91715350  *
    26       H(HETATM   26 2H6  HET A   1)    5.46644012  *  -2.05157118  *   4.33228136  *
 

 General Reference for PM7:
 "Optimization of Parameters for Semiempirical Methods VI: More Modifications to the 
 NDDO Approximations and Re-optimization of Parameters", J. J. P. Stewart, J. Mol. Mod., 1:32, 19 (2013)
 https://link.springer.com/article/10.1007/s00894-012-1667-x

           Empirical Formula: C10 H10 O6  =    26 atoms



      MOLECULAR POINT GROUP   :   C1  


      RHF CALCULATION, NO. OF DOUBLY OCCUPIED LEVELS = 43


          Transition state refinement using EF

          HESSIAN CALCULATED NUMERICALLY

 CYCLE:     1 TIME:   1.121 TIME LEFT:  2.00D  GRAD.:    48.877 HEAT: -166.3319
 CYCLE:     2 TIME:   0.082 TIME LEFT:  2.00D  GRAD.:     9.608 HEAT: -165.7991
 CYCLE:     3 TIME:   0.051 TIME LEFT:  2.00D  GRAD.:    11.242 HEAT: -166.7292
 CYCLE:     4 TIME:   0.020 TIME LEFT:  2.00D  GRAD.:     8.347 HEAT: -167.9876
 CYCLE:     5 TIME:   0.102 TIME LEFT:  2.00D  GRAD.:    10.821 HEAT: -169.6459
 CYCLE:     6 TIME:   0.109 TIME LEFT:  2.00D  GRAD.:     9.947 HEAT: -171.0566
 CYCLE:     7 TIME:   0.109 TIME LEFT:  2.00D  GRAD.:    45.625 HEAT: -171.7615
 CYCLE:     8 TIME:   0.133 TIME LEFT:  2.00D  GRAD.:    56.518 HEAT: -171.9833
 CYCLE:     9 TIME:   0.059 TIME LEFT:  2.00D  GRAD.:    49.028 HEAT: -172.5903
 CYCLE:    10 TIME:   0.062 TIME LEFT:  2.00D  GRAD.:    38.407 HEAT: -173.0743
 CYCLE:    11 TIME:   0.121 TIME LEFT:  2.00D  GRAD.:    35.760 HEAT: -173.5153
 CYCLE:    12 TIME:   0.051 TIME LEFT:  2.00D  GRAD.:    39.543 HEAT: -173.7984
 CYCLE:    13 TIME:   0.070 TIME LEFT:  2.00D  GRAD.:    46.793 HEAT: -174.0428
 CYCLE:    14 TIME:   0.051 TIME LEFT:  2.00D  GRAD.:    49.300 HEAT: -174.3742
 CYCLE:    15 TIME:   0.051 TIME LEFT:  2.00D  GRAD.:    33.791 HEAT: -174.9028
 CYCLE:    16 TIME:   0.020 TIME LEFT:  2.00D  GRAD.:    31.149 HEAT: -175.2165
 CYCLE:    17 TIME:   0.031 TIME LEFT:  2.00D  GRAD.:    22.581 HEAT: -175.5294
 CYCLE:    18 TIME:   0.082 TIME LEFT:  2.00D  GRAD.:    27.814 HEAT: -175.7420
 CYCLE:    19 TIME:   0.117 TIME LEFT:  2.00D  GRAD.:    25.244 HEAT: -175.8653
 CYCLE:    20 TIME:   0.094 TIME LEFT:  2.00D  GRAD.:    30.481 HEAT: -175.9341
 CYCLE:    21 TIME:   0.121 TIME LEFT:  2.00D  GRAD.:    25.808 HEAT: -176.0627
 CYCLE:    22 TIME:   0.047 TIME LEFT:  2.00D  GRAD.:    26.233 HEAT: -176.1557
 CYCLE:    23 TIME:   0.020 TIME LEFT:  2.00D  GRAD.:    20.916 HEAT: -176.2680
 CYCLE:    24 TIME:   0.023 TIME LEFT:  2.00D  GRAD.:    21.455 HEAT: -176.3412
 CYCLE:    25 TIME:   0.082 TIME LEFT:  2.00D  GRAD.:    21.177 HEAT: -176.4053
 CYCLE:    26 TIME:   0.105 TIME LEFT:  2.00D  GRAD.:    25.778 HEAT: -176.4166
 CYCLE:    27 TIME:   0.055 TIME LEFT:  2.00D  GRAD.:    11.894 HEAT: -176.5599
 CYCLE:    28 TIME:   0.059 TIME LEFT:  2.00D  GRAD.:     6.793 HEAT: -176.6139
 CYCLE:    29 TIME:   0.082 TIME LEFT:  2.00D  GRAD.:    11.084 HEAT: -176.6278
 CYCLE:    30 TIME:   0.051 TIME LEFT:  2.00D  GRAD.:    13.467 HEAT: -176.6460
 CYCLE:    31 TIME:   0.020 TIME LEFT:  2.00D  GRAD.:    10.743 HEAT: -176.6869
 CYCLE:    32 TIME:   0.020 TIME LEFT:  2.00D  GRAD.:     8.347 HEAT: -176.7199
 CYCLE:    33 TIME:   0.020 TIME LEFT:  2.00D  GRAD.:     7.910 HEAT: -176.7433
 CYCLE:    34 TIME:   0.023 TIME LEFT:  2.00D  GRAD.:     8.376 HEAT: -176.7666
 CYCLE:    35 TIME:   0.016 TIME LEFT:  2.00D  GRAD.:     7.884 HEAT: -176.7924
 CYCLE:    36 TIME:   0.020 TIME LEFT:  2.00D  GRAD.:     9.532 HEAT: -176.8117
 CYCLE:    37 TIME:   0.012 TIME LEFT:  2.00D  GRAD.:    10.138 HEAT: -176.8266
 CYCLE:    38 TIME:   0.023 TIME LEFT:  2.00D  GRAD.:    10.625 HEAT: -176.8485
 CYCLE:    39 TIME:   0.020 TIME LEFT:  2.00D  GRAD.:    10.594 HEAT: -176.8654
 CYCLE:    40 TIME:   0.020 TIME LEFT:  2.00D  GRAD.:    12.397 HEAT: -176.8741
 CYCLE:    41 TIME:   0.020 TIME LEFT:  2.00D  GRAD.:     6.798 HEAT: -176.9019
 CYCLE:    42 TIME:   0.012 TIME LEFT:  2.00D  GRAD.:     4.380 HEAT: -176.9146
 CYCLE:    43 TIME:   0.020 TIME LEFT:  2.00D  GRAD.:     3.469 HEAT: -176.9229
 CYCLE:    44 TIME:   0.008 TIME LEFT:  2.00D  GRAD.:     3.156 HEAT: -176.9302
 CYCLE:    45 TIME:   0.023 TIME LEFT:  2.00D  GRAD.:     2.947 HEAT: -176.9383
 CYCLE:    46 TIME:   0.016 TIME LEFT:  2.00D  GRAD.:     2.287 HEAT: -176.9464
 CYCLE:    47 TIME:   0.016 TIME LEFT:  2.00D  GRAD.:     2.651 HEAT: -176.9532
 CYCLE:    48 TIME:   0.020 TIME LEFT:  2.00D  GRAD.:     2.880 HEAT: -176.9593
 CYCLE:    49 TIME:   0.008 TIME LEFT:  2.00D  GRAD.:     4.053 HEAT: -176.9643
 CYCLE:    50 TIME:   0.020 TIME LEFT:  2.00D  GRAD.:     4.870 HEAT: -176.9689
 CYCLE:    51 TIME:   0.020 TIME LEFT:  2.00D  GRAD.:     5.233 HEAT: -176.9743
 CYCLE:    52 TIME:   0.023 TIME LEFT:  2.00D  GRAD.:     5.007 HEAT: -176.9803
 CYCLE:    53 TIME:   0.020 TIME LEFT:  2.00D  GRAD.:     5.366 HEAT: -176.9848
 CYCLE:    54 TIME:   0.020 TIME LEFT:  2.00D  GRAD.:     4.404 HEAT: -176.9901
 CYCLE:    55 TIME:   0.012 TIME LEFT:  2.00D  GRAD.:     3.715 HEAT: -176.9958
 CYCLE:    56 TIME:   0.020 TIME LEFT:  2.00D  GRAD.:     2.697 HEAT: -177.0012
 CYCLE:    57 TIME:   0.008 TIME LEFT:  2.00D  GRAD.:     2.080 HEAT: -177.0062
 CYCLE:    58 TIME:   0.020 TIME LEFT:  2.00D  GRAD.:     1.605 HEAT: -177.0108
 CYCLE:    59 TIME:   0.020 TIME LEFT:  2.00D  GRAD.:     0.919 HEAT: -177.0154

     GRADIENT =  0.91923 IS LESS THAN CUTOFF =  1.00000



 -------------------------------------------------------------------------------
 TS
 Refine transition state, starting with the geometry from SADDLE



     GEOMETRY OPTIMISED USING EIGENVECTOR FOLLOWING (TS).     
     SCF FIELD WAS ACHIEVED                                   


                              PM7 CALCULATION
                                                       MOPAC2016 (Version: 21.158W)
                                                       Fri Jun 11 09:13:50 2021
                                                       No. of days remaining = 361




          FINAL HEAT OF FORMATION =       -177.01538 KCAL/MOL =    -740.63234 KJ/MOL


          TOTAL ENERGY            =      -3132.72537 EV
          ELECTRONIC ENERGY       =     -18137.06211 EV  POINT GROUP:     C1  
          CORE-CORE REPULSION     =      15004.33674 EV
          COSMO AREA              =        223.36 SQUARE ANGSTROMS
          COSMO VOLUME            =        246.07 CUBIC ANGSTROMS

          GRADIENT NORM           =          0.91923 = 0.18028 PER ATOM
          IONIZATION POTENTIAL    =          8.845730 EV
          HOMO LUMO ENERGIES (EV) =         -8.846 -1.391
          NO. OF FILLED LEVELS    =         43
          MOLECULAR WEIGHT        =        226.1854

          MOLECULAR DIMENSIONS (Angstroms)

            Atom       Atom       Distance
            H    26    H    22     8.10017
            H    21    H    18     5.98324
            H    20    H    22     4.89715


          SCF CALCULATIONS        =        140
 
          WALL-CLOCK TIME         =          3.785 SECONDS
          COMPUTATION TIME        =         13.422 SECONDS




   ATOM                 CHEMICAL                   X               Y               Z
  NUMBER                 SYMBOL               (ANGSTROMS)     (ANGSTROMS)     (ANGSTROMS)
 
     1       C(HETATM    1  C1  HET A   1)    0.52963312  *  -0.17547679  *   0.12415721  *
     2       C(HETATM    2  C2  HET A   1)   -0.28627967  *  -0.92799575  *   0.91511312  *
     3       C(HETATM    3  C3  HET A   1)   -0.07147994  *  -2.33795504  *   1.04139972  *
     4       C(HETATM    4  C4  HET A   1)    0.93867194  *  -2.95289383  *   0.37810711  *
     5       C(HETATM    5  C5  HET A   1)    1.93688176  *  -2.19655398  *  -0.38149436  *
     6       C(HETATM    6  C6  HET A   1)    1.73329817  *  -0.74959192  *  -0.45871617  *
     7       C(HETATM    7  C7  HET A   1)    0.24969446  *   1.23223531  *  -0.16488251  *
     8       O(HETATM    8  O1  HET A   1)    0.82116565  *   1.94187187  *  -0.96537875  *
     9       O(HETATM    9  O2  HET A   1)   -0.77459143  *   1.72582215  *   0.56949645  *
    10       O(HETATM   10  O3  HET A   1)    2.22577752  *  -0.24996307  *  -1.64931133  *
    11       O(HETATM   11  O4  HET A   1)    3.25697272  *  -2.59840897  *   0.45441339  *
    12       C(HETATM   12  C8  HET A   1)    3.63512203  *  -1.77147023  *   1.37419846  *
    13       C(HETATM   13  C9  HET A   1)    3.96741046  *  -0.46236359  *   1.04758863  *
    14       C(HETATM   14  C10 HET A   1)    3.47480302  *  -2.25660617  *   2.77438615  *
    15       O(HETATM   15  O5  HET A   1)    2.75494599  *  -3.12314533  *   3.19162868  *
    16       O(HETATM   16  O6  HET A   1)    4.29779045  *  -1.56588662  *   3.60680322  *
    17       H(HETATM   17 1H2  HET A   1)   -1.14130358  *  -0.48494707  *   1.43415338  *
    18       H(HETATM   18 1H3  HET A   1)   -0.77134330  *  -2.90756229  *   1.65435449  *
    19       H(HETATM   19  H4  HET A   1)    1.06901782  *  -4.03663123  *   0.40448378  *
    20       H(HETATM   20  H5  HET A   1)    2.31914415  *  -2.66263007  *  -1.31611811  *
    21       H(HETATM   21 1H6  HET A   1)    4.46875869  *  -0.24251529  *   0.09927289  *
    22       H(HETATM   22 2H2  HET A   1)   -0.98306704  *   2.67442542  *   0.35867130  *
    23       H(HETATM   23 2H3  HET A   1)    1.90808181  *   0.68147500  *  -1.79777166  *
    24       H(HETATM   24 1H9  HET A   1)    4.21718358  *   0.25459704  *   1.82371031  *
    25       H(HETATM   25 2H9  HET A   1)    2.71200380  *  -0.15446104  *   0.44187447  *
    26       H(HETATM   26 2H6  HET A   1)    4.25155521  *  -1.87231287  *   4.54658222  *

                             CARTESIAN COORDINATES

   1    C        0.529633115    -0.175476787     0.124157209
   2    C       -0.286279669    -0.927995751     0.915113116
   3    C       -0.071479942    -2.337955041     1.041399719
   4    C        0.938671945    -2.952893828     0.378107107
   5    C        1.936881763    -2.196553983    -0.381494365
   6    C        1.733298173    -0.749591915    -0.458716167
   7    C        0.249694461     1.232235306    -0.164882508
   8    O        0.821165649     1.941871869    -0.965378748
   9    O       -0.774591433     1.725822147     0.569496455
  10    O        2.225777525    -0.249963069    -1.649311332
  11    O        3.256972719    -2.598408974     0.454413387
  12    C        3.635122030    -1.771470234     1.374198464
  13    C        3.967410461    -0.462363591     1.047588631
  14    C        3.474803019    -2.256606172     2.774386148
  15    O        2.754945990    -3.123145334     3.191628679
  16    O        4.297790446    -1.565886622     3.606803218
  17    H       -1.141303579    -0.484947073     1.434153383
  18    H       -0.771343296    -2.907562294     1.654354495
  19    H        1.069017819    -4.036631229     0.404483783
  20    H        2.319144145    -2.662630069    -1.316118108
  21    H        4.468758690    -0.242515285     0.099272893
  22    H       -0.983067038     2.674425424     0.358671299
  23    H        1.908081808     0.681475003    -1.797771658
  24    H        4.217183581     0.254597036     1.823710307
  25    H        2.712003799    -0.154461045     0.441874474
  26    H        4.251555210    -1.872312868     4.546582223


           Empirical Formula: C10 H10 O6  =    26 atoms



      MOLECULAR POINT GROUP   :   C1  


                  EIGENVALUES  
 -32.22797 -31.85315 -31.48734 -30.60670 -30.41289 -30.15710 -29.48010 -27.53825
 -26.97609 -26.01597 -23.72997 -23.21281 -21.98540 -20.75163 -19.79523 -18.28832
 -18.09334 -17.71731 -17.55442 -17.17238 -17.02065 -16.47459 -16.07668 -15.97827
 -15.70661 -15.33591 -14.84844 -14.40418 -14.22762 -14.00204 -13.77223 -13.54842
 -13.00461 -12.80689 -12.74728 -12.58495 -12.30048 -12.03669 -11.69098 -11.53444
 -10.79806 -10.07155  -8.84573  -1.39055  -1.12900   0.19648   0.86910   1.22096
   1.45708   1.47120   1.93262   2.50481   2.71216   2.99993   3.38886   3.65436
   3.76282   3.83104   3.91465   4.13134   4.23801   4.28270   4.42044   4.56897
   4.94930   5.04523   5.22892   5.30172   5.42182   5.53146   5.59709   5.71957
   5.93887   5.95072


              NET ATOMIC CHARGES AND DIPOLE CONTRIBUTIONS

  ATOM NO.                 TYPE                        CHARGE      No. of ELECS.   s-Pop       p-Pop       
    1          C(HETATM    1  C1  HET A   1)          -0.225370        4.2254     1.06911     3.15626
    2          C(HETATM    2  C2  HET A   1)          -0.043321        4.0433     1.09357     2.94975
    3          C(HETATM    3  C3  HET A   1)          -0.182913        4.1829     1.08278     3.10013
    4          C(HETATM    4  C4  HET A   1)          -0.105521        4.1055     1.10036     3.00517
    5          C(HETATM    5  C5  HET A   1)           0.029750        3.9703     1.09932     2.87093
    6          C(HETATM    6  C6  HET A   1)           0.076216        3.9238     1.08724     2.83655
    7          C(HETATM    7  C7  HET A   1)           0.656915        3.3431     1.10567     2.23742
    8          O(HETATM    8  O1  HET A   1)          -0.542572        6.5426     1.87899     4.66358
    9          O(HETATM    9  O2  HET A   1)          -0.535936        6.5359     1.83899     4.69695
   10          O(HETATM   10  O3  HET A   1)          -0.516330        6.5163     1.84855     4.66778
   11          O(HETATM   11  O4  HET A   1)          -0.337916        6.3379     1.89116     4.44676
   12          C(HETATM   12  C8  HET A   1)           0.186053        3.8139     1.09738     2.71657
   13          C(HETATM   13  C9  HET A   1)          -0.429713        4.4297     1.09088     3.33883
   14          C(HETATM   14  C10 HET A   1)           0.581656        3.4183     1.12916     2.28918
   15          O(HETATM   15  O5  HET A   1)          -0.469824        6.4698     1.87708     4.59275
   16          O(HETATM   16  O6  HET A   1)          -0.550068        6.5501     1.83972     4.71035
   17          H(HETATM   17 1H2  HET A   1)           0.174809        0.8252     0.82519
   18          H(HETATM   18 1H3  HET A   1)           0.167917        0.8321     0.83208
   19          H(HETATM   19  H4  HET A   1)           0.172069        0.8279     0.82793
   20          H(HETATM   20  H5  HET A   1)           0.190640        0.8094     0.80936
   21          H(HETATM   21 1H6  HET A   1)           0.196546        0.8035     0.80345
   22          H(HETATM   22 2H2  HET A   1)           0.362652        0.6373     0.63735
   23          H(HETATM   23 2H3  HET A   1)           0.357383        0.6426     0.64262
   24          H(HETATM   24 1H9  HET A   1)           0.181819        0.8182     0.81818
   25          H(HETATM   25 2H9  HET A   1)           0.249925        0.7501     0.75007
   26          H(HETATM   26 2H6  HET A   1)           0.355133        0.6449     0.64487

          NET CHARGE ON RESIDUES

      Residue         Charge  Anion or
                              Cation?
      HET A   1       +0.000
 


 DIPOLE           X         Y         Z       TOTAL
 POINT-CHG.    -1.585     0.735     1.492     2.298
 HYBRID        -0.271     0.798     0.178     0.861
 SUM           -1.856     1.534     1.671     2.930


          ATOMIC ORBITAL ELECTRON POPULATIONS

                   Atom                  s        px        py        pz   
   C(HETATM    1  C1  HET A   1)   1.06911   1.03589   0.98936   1.13101
   C(HETATM    2  C2  HET A   1)   1.09357   1.01012   0.98849   0.95114
   C(HETATM    3  C3  HET A   1)   1.08278   1.05392   1.00385   1.04237
   C(HETATM    4  C4  HET A   1)   1.10036   0.95630   1.09322   0.95564
   C(HETATM    5  C5  HET A   1)   1.09932   0.88497   0.98199   1.00397
   C(HETATM    6  C6  HET A   1)   1.08724   0.98316   0.96397   0.88942
   C(HETATM    7  C7  HET A   1)   1.10567   0.69854   0.83593   0.70296
   O(HETATM    8  O1  HET A   1)   1.87899   1.59151   1.63524   1.43684
   O(HETATM    9  O2  HET A   1)   1.83899   1.58052   1.44679   1.66964
   O(HETATM   10  O3  HET A   1)   1.84855   1.76279   1.47481   1.43017
   O(HETATM   11  O4  HET A   1)   1.89116   1.40912   1.51028   1.52736
   C(HETATM   12  C8  HET A   1)   1.09738   0.90740   0.93398   0.87518
   C(HETATM   13  C9  HET A   1)   1.09088   1.10203   1.05733   1.17948
   C(HETATM   14  C10 HET A   1)   1.12916   0.70981   0.73426   0.84512
   O(HETATM   15  O5  HET A   1)   1.87708   1.44736   1.37374   1.77164
   O(HETATM   16  O6  HET A   1)   1.83972   1.67822   1.66251   1.36963
   H(HETATM   17 1H2  HET A   1)   0.82519
   H(HETATM   18 1H3  HET A   1)   0.83208
   H(HETATM   19  H4  HET A   1)   0.82793
   H(HETATM   20  H5  HET A   1)   0.80936
   H(HETATM   21 1H6  HET A   1)   0.80345
   H(HETATM   22 2H2  HET A   1)   0.63735
   H(HETATM   23 2H3  HET A   1)   0.64262
   H(HETATM   24 1H9  HET A   1)   0.81818
   H(HETATM   25 2H9  HET A   1)   0.75007
   H(HETATM   26 2H6  HET A   1)   0.64487
 *******************************************************************************
 ** Site#: 37037        For non-commercial use only           Version 21.158W **
 *******************************************************************************
 ** Cite this program as: MOPAC2016, Version: 21.158W, James J. P. Stewart,   **
 ** Stewart Computational Chemistry, web: HTTP://OpenMOPAC.net. Days left: 361**
 *******************************************************************************
 **                                                                           **
 **                                MOPAC2016                                  **
 **                                                                           **
 *******************************************************************************

                              PM7 CALCULATION RESULTS

 *******************************************************************************
 *  CALCULATION DONE:                                Fri Jun 11 09:13:50 2021  *
 *  IRC=N      - INTRINSIC REACTION COORDINATE -1 DEFINED
 *  DRC        - DYNAMIC REACTION COORDINATE CALCULATION
 *  OLDGEO     - PREVIOUS GEOMETRY TO BE USED
 *  T=         - A TIME OF 172800.0 SECONDS REQUESTED
 *  DUMP=N     - RESTART FILE WRITTEN EVERY 7200.0 SECONDS REQUESTED
 *  CYCLES=    - DO A MAXIMUM OF 150 STEPS
 *  GNORM      - EXIT WHEN GRADIENT NORM DROPS BELOW 0.000
 *  HTML       - WRITE HTML SCRIPT TO GENERATE ANIMATION USING JSMOL
 *             - TO DISPLAY IN PDB FORMAT, ADD "PDBOUT"
 *  T-PRIOR    - TIME TAKES PRIORITY IN DRC
 *******************************************************************************
IRC=-1* oldgeo T-priority=0.5 HTML DRC cycles=150 gnorm=0
 DRC for Isochorismic acid <=> Pyruvic acid plus Salicylic acid
 (Click on "Common" to orientate the system to see the reaction better.)
   ATOM                 CHEMICAL                   X               Y               Z
  NUMBER                 SYMBOL               (ANGSTROMS)     (ANGSTROMS)     (ANGSTROMS)
 
     1       C(HETATM    1  C1  HET A   1)    0.52963312  *  -0.17547679  *   0.12415721  *
     2       C(HETATM    2  C2  HET A   1)   -0.28627967  *  -0.92799575  *   0.91511312  *
     3       C(HETATM    3  C3  HET A   1)   -0.07147994  *  -2.33795504  *   1.04139972  *
     4       C(HETATM    4  C4  HET A   1)    0.93867194  *  -2.95289383  *   0.37810711  *
     5       C(HETATM    5  C5  HET A   1)    1.93688176  *  -2.19655398  *  -0.38149436  *
     6       C(HETATM    6  C6  HET A   1)    1.73329817  *  -0.74959192  *  -0.45871617  *
     7       C(HETATM    7  C7  HET A   1)    0.24969446  *   1.23223531  *  -0.16488251  *
     8       O(HETATM    8  O1  HET A   1)    0.82116565  *   1.94187187  *  -0.96537875  *
     9       O(HETATM    9  O2  HET A   1)   -0.77459143  *   1.72582215  *   0.56949645  *
    10       O(HETATM   10  O3  HET A   1)    2.22577752  *  -0.24996307  *  -1.64931133  *
    11       O(HETATM   11  O4  HET A   1)    3.25697272  *  -2.59840897  *   0.45441339  *
    12       C(HETATM   12  C8  HET A   1)    3.63512203  *  -1.77147023  *   1.37419846  *
    13       C(HETATM   13  C9  HET A   1)    3.96741046  *  -0.46236359  *   1.04758863  *
    14       C(HETATM   14  C10 HET A   1)    3.47480302  *  -2.25660617  *   2.77438615  *
    15       O(HETATM   15  O5  HET A   1)    2.75494599  *  -3.12314533  *   3.19162868  *
    16       O(HETATM   16  O6  HET A   1)    4.29779045  *  -1.56588662  *   3.60680322  *
    17       H(HETATM   17 1H2  HET A   1)   -1.14130358  *  -0.48494707  *   1.43415338  *
    18       H(HETATM   18 1H3  HET A   1)   -0.77134330  *  -2.90756229  *   1.65435449  *
    19       H(HETATM   19  H4  HET A   1)    1.06901782  *  -4.03663123  *   0.40448378  *
    20       H(HETATM   20  H5  HET A   1)    2.31914415  *  -2.66263007  *  -1.31611811  *
    21       H(HETATM   21 1H6  HET A   1)    4.46875869  *  -0.24251529  *   0.09927289  *
    22       H(HETATM   22 2H2  HET A   1)   -0.98306704  *   2.67442542  *   0.35867130  *
    23       H(HETATM   23 2H3  HET A   1)    1.90808181  *   0.68147500  *  -1.79777166  *
    24       H(HETATM   24 1H9  HET A   1)    4.21718358  *   0.25459704  *   1.82371031  *
    25       H(HETATM   25 2H9  HET A   1)    2.71200380  *  -0.15446104  *   0.44187447  *
    26       H(HETATM   26 2H6  HET A   1)    4.25155521  *  -1.87231287  *   4.54658222  *
 

 General Reference for PM7:
 "Optimization of Parameters for Semiempirical Methods VI: More Modifications to the 
 NDDO Approximations and Re-optimization of Parameters", J. J. P. Stewart, J. Mol. Mod., 1:32, 19 (2013)
 https://link.springer.com/article/10.1007/s00894-012-1667-x

           Empirical Formula: C10 H10 O6  =    26 atoms



      MOLECULAR POINT GROUP   :   C1  


      RHF CALCULATION, NO. OF DOUBLY OCCUPIED LEVELS = 43



          HEAT OF FORMATION =    -177.193790 KCALS/MOLE


          GRADIENT NORM =   1.06530


          TIME FOR SCF CALCULATION =    0.02

          TIME FOR DERIVATIVES     =    0.02

          MOLECULAR WEIGHT =  226.19


          ESTIMATED TIME TO COMPLETE CALCULATION =        5.48 SECONDS

    FOR POINT-GROUP C1   THERE ARE   1 UNIQUE SYMMETRY FUNCTIONS.

 STEP:   1 TIME =     0.04 SECS, INTEGRAL =      0.04 TIME LEFT: 172799.93
 STEP:   2 TIME =     0.03 SECS, INTEGRAL =      0.07 TIME LEFT: 172799.90
 STEP:   3 TIME =     0.02 SECS, INTEGRAL =      0.08 TIME LEFT: 172799.88
 STEP:   4 TIME =     0.03 SECS, INTEGRAL =      0.11 TIME LEFT: 172799.86
 STEP:   5 TIME =     0.03 SECS, INTEGRAL =      0.14 TIME LEFT: 172799.82
 STEP:   6 TIME =     0.01 SECS, INTEGRAL =      0.15 TIME LEFT: 172799.81
 STEP:   7 TIME =     0.03 SECS, INTEGRAL =      0.18 TIME LEFT: 172799.78
 STEP:   8 TIME =     0.03 SECS, INTEGRAL =      0.21 TIME LEFT: 172799.75
 STEP:   9 TIME =     0.03 SECS, INTEGRAL =      0.24 TIME LEFT: 172799.72
 STEP:  10 TIME =     0.02 SECS, INTEGRAL =      0.27 TIME LEFT: 172799.70
 STEP:  11 TIME =     0.03 SECS, INTEGRAL =      0.30 TIME LEFT: 172799.67
 STEP:  12 TIME =     0.02 SECS, INTEGRAL =      0.32 TIME LEFT: 172799.65
 STEP:  13 TIME =     0.02 SECS, INTEGRAL =      0.34 TIME LEFT: 172799.62
 STEP:  14 TIME =     0.03 SECS, INTEGRAL =      0.37 TIME LEFT: 172799.59
 STEP:  15 TIME =     0.03 SECS, INTEGRAL =      0.40 TIME LEFT: 172799.56
 STEP:  16 TIME =     0.02 SECS, INTEGRAL =      0.42 TIME LEFT: 172799.54
 STEP:  17 TIME =     0.02 SECS, INTEGRAL =      0.44 TIME LEFT: 172799.52
 STEP:  18 TIME =     0.03 SECS, INTEGRAL =      0.47 TIME LEFT: 172799.50
 STEP:  19 TIME =     0.02 SECS, INTEGRAL =      0.49 TIME LEFT: 172799.48
 STEP:  20 TIME =     0.03 SECS, INTEGRAL =      0.52 TIME LEFT: 172799.45
 STEP:  21 TIME =     0.03 SECS, INTEGRAL =      0.55 TIME LEFT: 172799.42
 STEP:  22 TIME =     0.03 SECS, INTEGRAL =      0.58 TIME LEFT: 172799.39
 STEP:  23 TIME =     0.03 SECS, INTEGRAL =      0.61 TIME LEFT: 172799.36
 STEP:  24 TIME =     0.03 SECS, INTEGRAL =      0.64 TIME LEFT: 172799.33
 STEP:  25 TIME =     0.03 SECS, INTEGRAL =      0.67 TIME LEFT: 172799.30
 STEP:  26 TIME =     0.02 SECS, INTEGRAL =      0.69 TIME LEFT: 172799.28
 STEP:  27 TIME =     0.02 SECS, INTEGRAL =      0.71 TIME LEFT: 172799.26
 STEP:  28 TIME =     0.02 SECS, INTEGRAL =      0.73 TIME LEFT: 172799.23
 STEP:  29 TIME =     0.02 SECS, INTEGRAL =      0.75 TIME LEFT: 172799.21
 STEP:  30 TIME =     0.03 SECS, INTEGRAL =      0.78 TIME LEFT: 172799.19
 STEP:  31 TIME =     0.02 SECS, INTEGRAL =      0.80 TIME LEFT: 172799.17
 STEP:  32 TIME =     0.02 SECS, INTEGRAL =      0.82 TIME LEFT: 172799.14
 STEP:  33 TIME =     0.03 SECS, INTEGRAL =      0.85 TIME LEFT: 172799.12
 STEP:  34 TIME =     0.03 SECS, INTEGRAL =      0.88 TIME LEFT: 172799.09
 STEP:  35 TIME =     0.03 SECS, INTEGRAL =      0.91 TIME LEFT: 172799.05
 STEP:  36 TIME =     0.03 SECS, INTEGRAL =      0.94 TIME LEFT: 172799.02
 STEP:  37 TIME =     0.03 SECS, INTEGRAL =      0.97 TIME LEFT: 172799.00
 STEP:  38 TIME =     0.03 SECS, INTEGRAL =      1.00 TIME LEFT: 172798.96
 STEP:  39 TIME =     0.04 SECS, INTEGRAL =      1.04 TIME LEFT: 172798.92
 STEP:  40 TIME =     0.03 SECS, INTEGRAL =      1.07 TIME LEFT: 172798.89
 STEP:  41 TIME =     0.03 SECS, INTEGRAL =      1.10 TIME LEFT: 172798.86
 STEP:  42 TIME =     0.03 SECS, INTEGRAL =      1.13 TIME LEFT: 172798.84
 STEP:  43 TIME =     0.02 SECS, INTEGRAL =      1.15 TIME LEFT: 172798.82
 STEP:  44 TIME =     0.03 SECS, INTEGRAL =      1.18 TIME LEFT: 172798.79
 STEP:  45 TIME =     0.03 SECS, INTEGRAL =      1.21 TIME LEFT: 172798.76
 STEP:  46 TIME =     0.02 SECS, INTEGRAL =      1.23 TIME LEFT: 172798.74
 STEP:  47 TIME =     0.02 SECS, INTEGRAL =      1.25 TIME LEFT: 172798.72
 STEP:  48 TIME =     0.03 SECS, INTEGRAL =      1.28 TIME LEFT: 172798.69
 STEP:  49 TIME =     0.02 SECS, INTEGRAL =      1.30 TIME LEFT: 172798.66
 STEP:  50 TIME =     0.03 SECS, INTEGRAL =      1.33 TIME LEFT: 172798.64
 STEP:  51 TIME =     0.02 SECS, INTEGRAL =      1.35 TIME LEFT: 172798.62
 STEP:  52 TIME =     0.02 SECS, INTEGRAL =      1.37 TIME LEFT: 172798.60
 STEP:  53 TIME =     0.02 SECS, INTEGRAL =      1.39 TIME LEFT: 172798.58
 STEP:  54 TIME =     0.02 SECS, INTEGRAL =      1.41 TIME LEFT: 172798.56
 STEP:  55 TIME =     0.02 SECS, INTEGRAL =      1.43 TIME LEFT: 172798.54
 STEP:  56 TIME =     0.02 SECS, INTEGRAL =      1.45 TIME LEFT: 172798.52
 STEP:  57 TIME =     0.03 SECS, INTEGRAL =      1.48 TIME LEFT: 172798.49
 STEP:  58 TIME =     0.03 SECS, INTEGRAL =      1.51 TIME LEFT: 172798.46
 STEP:  59 TIME =     0.03 SECS, INTEGRAL =      1.54 TIME LEFT: 172798.43
 STEP:  60 TIME =     0.02 SECS, INTEGRAL =      1.56 TIME LEFT: 172798.41
 STEP:  61 TIME =     0.03 SECS, INTEGRAL =      1.59 TIME LEFT: 172798.38
 STEP:  62 TIME =     0.02 SECS, INTEGRAL =      1.61 TIME LEFT: 172798.36
 STEP:  63 TIME =     0.02 SECS, INTEGRAL =      1.62 TIME LEFT: 172798.34
 STEP:  64 TIME =     0.02 SECS, INTEGRAL =      1.64 TIME LEFT: 172798.32
 STEP:  65 TIME =     0.03 SECS, INTEGRAL =      1.68 TIME LEFT: 172798.29
 STEP:  66 TIME =     0.02 SECS, INTEGRAL =      1.70 TIME LEFT: 172798.27
 STEP:  67 TIME =     0.03 SECS, INTEGRAL =      1.73 TIME LEFT: 172798.24
 STEP:  68 TIME =     0.02 SECS, INTEGRAL =      1.75 TIME LEFT: 172798.21
 STEP:  69 TIME =     0.02 SECS, INTEGRAL =      1.77 TIME LEFT: 172798.20
 STEP:  70 TIME =     0.02 SECS, INTEGRAL =      1.79 TIME LEFT: 172798.17
 STEP:  71 TIME =     0.03 SECS, INTEGRAL =      1.82 TIME LEFT: 172798.14
 STEP:  72 TIME =     0.03 SECS, INTEGRAL =      1.85 TIME LEFT: 172798.11
 STEP:  73 TIME =     0.02 SECS, INTEGRAL =      1.87 TIME LEFT: 172798.09
 STEP:  74 TIME =     0.03 SECS, INTEGRAL =      1.90 TIME LEFT: 172798.07
 STEP:  75 TIME =     0.02 SECS, INTEGRAL =      1.92 TIME LEFT: 172798.04
 STEP:  76 TIME =     0.03 SECS, INTEGRAL =      1.95 TIME LEFT: 172798.01
 STEP:  77 TIME =     0.03 SECS, INTEGRAL =      1.98 TIME LEFT: 172797.98
 STEP:  78 TIME =     0.02 SECS, INTEGRAL =      2.00 TIME LEFT: 172797.96
           INITIAL VELOCITY IN DRC (Angstroms/Femtosecond)
        -0.01541         0.01064         0.01238
         0.00661         0.00649         0.00138
        -0.00200        -0.00998         0.00244
        -0.01198         0.00371         0.00253
         0.00202        -0.02554        -0.02842
         0.01896         0.00901        -0.05424
         0.00257         0.00115         0.00061
        -0.00054         0.00051         0.00027
        -0.00060         0.00058         0.00001
         0.00478        -0.00180         0.01180
        -0.00275        -0.00143         0.02895
         0.01602         0.03377        -0.01064
        -0.00582        -0.03818        -0.03653
         0.00219         0.00031         0.00346
         0.00036        -0.00015         0.00032
        -0.00042        -0.00039         0.00050
        -0.00528         0.00102        -0.00289
        -0.00214         0.00202         0.00031
        -0.00493        -0.00218        -0.00481
        -0.00339         0.01157         0.03189
        -0.02653         0.06937         0.06627
        -0.00314         0.00165        -0.00069
        -0.00033        -0.00751         0.01139
        -0.00330         0.02142         0.01737
        -0.11864         0.04864         0.49003
        -0.00217        -0.00086         0.00212
 THE VIBRATIONAL FREQUENCY ( -1745.88CM(-1)) IS TOO SMALL
 FOR ONE QUANTUM TO BE USED
 INSTEAD 0.3KCAL/MOLE WILL BE USED TO START THE IRC

 TIME PRIORITY, INTERVAL = 0.50 FEMTOSECONDS



 FEMTOSECONDS  POINT  POTENTIAL + KINETIC  =   TOTAL     ERROR    REF%   MOVEMENT
     0.000       1  -177.19377    0.30000  -176.89377   0.00000     1   %  0.0000
     0.500       1  -177.20492   -0.34672  -177.55164  -0.65787     2   %  0.0123
     1.000       1  -177.23400   -0.56077  -177.79476  -0.90099     3   %  0.0248
     1.500       1  -177.28100   -0.34215  -177.62315  -0.72938     4   %  0.0374
     2.000       1  -177.34593    0.30914  -177.03679  -0.14302     5   %  0.0502
     2.500       1  -177.42879    1.39310  -176.03570   0.85807     6   %  0.0631
     3.000      10  -177.60029    0.70719  -176.89309   0.00068     7   %  0.0840
     3.500      13  -177.80947    0.91674  -176.89273   0.00105     8   %  0.1046
     4.000      16  -178.09474    1.20251  -176.89223   0.00154     9   %  0.1281
     4.500      18  -178.47686    1.58408  -176.89277   0.00100    10   %  0.1550
     5.000      21  -178.97760    2.08558  -176.89202   0.00176    11   %  0.1859
     5.500      23  -179.61700    2.72448  -176.89252   0.00126    12   %  0.2213
     6.000      26  -180.40699    3.51477  -176.89222   0.00156    13   %  0.2617
     6.500      28  -181.34305    4.45145  -176.89160   0.00218    14   %  0.3075
     7.000      30  -182.39461    5.50380  -176.89082   0.00296    15   %  0.3589
     7.500      33  -183.49900    6.60789  -176.89111   0.00267    16   %  0.4161
     8.000      36  -184.56161    7.66980  -176.89181   0.00198    17   %  0.4786
     8.500      40  -185.47179    8.57876  -176.89303   0.00075    18   %  0.5459
     9.000      44  -186.13079    9.23738  -176.89342   0.00037    19   %  0.6169
     9.500      49  -186.49024    9.59668  -176.89356   0.00024    20   %  0.6904
    10.000      54  -186.58454    9.69084  -176.89370   0.00010    21   %  0.7648
    10.500      59  -186.53957    9.64579  -176.89378   0.00002    22   %  0.8386
    11.000      64  -186.54560    9.65181  -176.89379   0.00001    23   %  0.9101
    11.500      69  -186.79767    9.90396  -176.89371   0.00009    24   %  0.9783
    12.000      73  -187.42507   10.53156  -176.89352   0.00029    25   %  1.0421
    12.500      77  -188.43788   11.54440  -176.89348   0.00033    26   %  1.1013
    13.000      82  -189.71723   12.82368  -176.89355   0.00027    27   %  1.1561
    13.500      87  -191.05136   14.15774  -176.89361   0.00021    28   %  1.2072
    14.000      92  -192.20306   15.30933  -176.89373   0.00009    29   %  1.2558
    14.500      97  -192.97908   16.08520  -176.89388  -0.00005    30   %  1.3036
    15.000     102  -193.27734   16.38333  -176.89401  -0.00017    31   %  1.3522
    15.500     107  -193.10026   16.20617  -176.89409  -0.00024    32   %  1.4034
    16.000     112  -192.53788   15.64376  -176.89412  -0.00027    33   %  1.4585
    16.500     117  -191.73447   14.84037  -176.89410  -0.00025    34   %  1.5182
    17.000     122  -190.85221   13.95815  -176.89406  -0.00020    35   %  1.5821
    17.500     127  -190.04200   13.14799  -176.89400  -0.00014    36   %  1.6498
    18.000     132  -189.42382   12.52987  -176.89395  -0.00007    37   %  1.7203
    18.500     137  -189.07558   12.18170  -176.89388  -0.00001    38   %  1.7928
    19.000     142  -189.02744   12.13361  -176.89382   0.00006    39   %  1.8667
    19.500     147  -189.25954   12.36577  -176.89376   0.00012    40   %  1.9417
    20.000     152  -189.70317   12.80945  -176.89371   0.00018    41   %  2.0174
    20.500     157  -190.24747   13.35379  -176.89368   0.00022    42   %  2.0938
    21.000     162  -190.75538   13.86170  -176.89367   0.00022    43   %  2.1705
    21.500     167  -191.09119   14.19747  -176.89372   0.00018    44   %  2.2470
    22.000     172  -191.15871   14.26489  -176.89382   0.00009    45   %  2.3223
    22.500     177  -190.94066   14.04671  -176.89395  -0.00004    46   %  2.3954
    23.000     182  -190.52452   13.63045  -176.89407  -0.00016    47   %  2.4647
    23.500     187  -190.09755   13.20341  -176.89413  -0.00021    48   %  2.5289
    24.000     192  -189.90261   13.00848  -176.89413  -0.00020    49   %  2.5867
    24.500     196  -190.16349   13.26952  -176.89398  -0.00005    50   %  2.6371
    25.000     200  -191.00438   14.11102  -176.89336   0.00058    51   %  2.6798
    25.500     204  -192.39581   15.50232  -176.89350   0.00044    52   %  2.7150
    26.000     208  -194.15419   17.26060  -176.89359   0.00036    53   %  2.7437
    26.500     213  -195.99445   19.10082  -176.89363   0.00033    54   %  2.7674
    27.000     218  -197.61513   20.72140  -176.89373   0.00023    55   %  2.7881
    27.500     223  -198.78060   21.88674  -176.89386   0.00011    56   %  2.8079
    28.000     228  -199.37291   22.47894  -176.89396   0.00001    57   %  2.8292
    28.500     233  -199.40149   22.50747  -176.89402  -0.00004    58   %  2.8539
    29.000     238  -198.97792   22.08393  -176.89399  -0.00000    59   %  2.8836
    29.500     243  -198.27319   21.37920  -176.89399   0.00001    60   %  2.9193
    30.000     248  -197.47424   20.58029  -176.89395   0.00006    61   %  2.9616
    30.500     253  -196.75037   19.85646  -176.89391   0.00010    62   %  3.0106
    31.000     258  -196.23138   19.33752  -176.89386   0.00016    63   %  3.0661
    31.500     262  -195.99553   19.10174  -176.89380   0.00023    64   %  3.1283
    32.000     266  -196.06315   19.16945  -176.89370   0.00033    65   %  3.1986
    32.500     269  -196.39497   19.50134  -176.89363   0.00041    66   %  3.2783
    33.000     273  -196.89603   20.00237  -176.89367   0.00038    67   %  3.3655
    33.500     278  -197.42711   20.53308  -176.89403   0.00003    68   %  3.4586
    34.000     283  -197.82839   20.93459  -176.89379   0.00027    69   %  3.5563
    34.500     288  -197.95494   21.06109  -176.89385   0.00022    70   %  3.6575
    35.000     293  -197.72063   20.82666  -176.89397   0.00011    71   %  3.7605
    35.500     298  -197.13655   20.24244  -176.89411  -0.00002    72   %  3.8636
    36.000     303  -196.32781   19.43358  -176.89422  -0.00014    73   %  3.9647
    36.500     308  -195.51364   18.61937  -176.89427  -0.00017    74   %  4.0621
    37.000     313  -194.94918   18.05495  -176.89423  -0.00013    75   %  4.1540
    37.500     317  -194.84521   17.95110  -176.89411  -0.00001    76   %  4.2395
    38.000     321  -195.29583   18.40194  -176.89389   0.00022    77   %  4.3181
    38.500     326  -196.24408   19.35014  -176.89393   0.00019    78   %  4.3898
    39.000     331  -197.50097   20.60701  -176.89396   0.00017    79   %  4.4554
    39.500     336  -198.80982   21.91576  -176.89406   0.00007    80   %  4.5161
    40.000     341  -199.92651   23.03230  -176.89421  -0.00006    81   %  4.5734
    40.500     346  -200.68563   23.79128  -176.89435  -0.00020    82   %  4.6289
    41.000     351  -201.03202   24.13757  -176.89445  -0.00029    83   %  4.6839
    41.500     356  -201.01498   24.12049  -176.89448  -0.00032    84   %  4.7395
    42.000     361  -200.75680   23.86232  -176.89448  -0.00030    85   %  4.7965
    42.500     366  -200.41202   23.51758  -176.89445  -0.00026    86   %  4.8550
    43.000     370  -200.13095   23.23655  -176.89441  -0.00021    87   %  4.9152
    43.500     375  -200.03265   23.13835  -176.89430  -0.00010    88   %  4.9769
    44.000     379  -200.18920   23.29504  -176.89416   0.00005    89   %  5.0402
    44.500     383  -200.61677   23.72272  -176.89406   0.00016    90   %  5.1053
    45.000     388  -201.27311   24.37909  -176.89402   0.00021    91   %  5.1726
    45.500     393  -202.05963   25.16566  -176.89397   0.00027    92   %  5.2427
    46.000     398  -202.83006   25.93615  -176.89391   0.00033    93   %  5.3162
    46.500     403  -203.40869   26.51478  -176.89391   0.00034    94   %  5.3936
    47.000     408  -203.62090   26.72698  -176.89392   0.00034    95   %  5.4750
    47.500     413  -203.33550   26.44149  -176.89402   0.00025    96   %  5.5597
    48.000     418  -202.51065   25.61649  -176.89416   0.00012    97   %  5.6468
    48.500     423  -201.22809   24.33378  -176.89431  -0.00002    98   %  5.7348
    49.000     428  -199.69687   22.80246  -176.89441  -0.00012    99   %  5.8222
    49.500     433  -198.21418   21.31976  -176.89442  -0.00012   100   %  5.9073
    50.000     438  -197.08794   20.19359  -176.89435  -0.00004   101   %  5.9892
    50.500     441  -196.54515   19.65108  -176.89407   0.00024   102   %  6.0670
    51.000     445  -196.66233   19.76894  -176.89339   0.00094   103   %  6.1407
    51.500     448  -197.34316   20.44925  -176.89391   0.00042   104   %  6.2112
    52.000     453  -198.36030   21.46615  -176.89415   0.00019   105   %  6.2794
    52.500     458  -199.43373   22.53945  -176.89428   0.00006   106   %  6.3473
    53.000     463  -200.31940   23.42496  -176.89444  -0.00009   107   %  6.4166
    53.500     468  -200.87021   23.97563  -176.89458  -0.00021   108   %  6.4890
    54.000     473  -201.05664   24.16198  -176.89466  -0.00029   109   %  6.5659
    54.500     478  -200.94988   24.05524  -176.89464  -0.00026   110   %  6.6482
    55.000     483  -200.68342   23.78879  -176.89463  -0.00025   111   %  6.7359
    55.500     488  -200.41038   23.51581  -176.89456  -0.00017   112   %  6.8288
    56.000     493  -200.26874   23.37426  -176.89448  -0.00008   113   %  6.9265
    56.500     498  -200.35810   23.46369  -176.89440   0.00001   114   %  7.0285
    57.000     503  -200.72660   23.83227  -176.89433   0.00009   115   %  7.1344
    57.500     508  -201.36529   24.47103  -176.89427   0.00016   116   %  7.2440
    58.000     513  -202.20758   25.31337  -176.89421   0.00023   117   %  7.3573
    58.500     518  -203.13423   26.24006  -176.89417   0.00028   118   %  7.4744
    59.000     523  -203.98614   27.09198  -176.89415   0.00030   119   %  7.5953
    59.500     528  -204.58796   27.69379  -176.89418   0.00029   120   %  7.7197
    60.000     533  -204.78387   27.88962  -176.89425   0.00023   121   %  7.8471
    60.500     538  -204.48156   27.58720  -176.89437   0.00011   122   %  7.9766
    61.000     543  -203.69239   26.79788  -176.89451  -0.00002   123   %  8.1067
    61.500     548  -202.55050   25.65588  -176.89462  -0.00012   124   %  8.2359
    62.000     553  -201.29491   24.40027  -176.89464  -0.00013   125   %  8.3626
    62.500     558  -200.21046   23.31587  -176.89459  -0.00007   126   %  8.4851
    63.000     562  -199.54351   22.64916  -176.89434   0.00018   127   %  8.6023
    63.500     566  -199.42142   22.52767  -176.89375   0.00078   128   %  8.7134
    64.000     570  -199.81049   22.91635  -176.89414   0.00041   129   %  8.8185
    64.500     575  -200.52950   23.63526  -176.89424   0.00031   130   %  8.9179
    65.000     580  -201.31634   24.42200  -176.89434   0.00022   131   %  9.0125
    65.500     585  -201.91400   25.01951  -176.89449   0.00008   132   %  9.1034
    66.000     590  -202.14499   25.25035  -176.89464  -0.00006   133   %  9.1918
    66.500     595  -201.95024   25.05550  -176.89474  -0.00015   134   %  9.2787
    67.000     600  -201.38731   24.49253  -176.89478  -0.00018   135   %  9.3650
    67.500     605  -200.59891   23.70415  -176.89476  -0.00016   136   %  9.4512
    68.000     610  -199.76924   22.87455  -176.89469  -0.00008   137   %  9.5375
    68.500     614  -199.08234   22.18768  -176.89466  -0.00004   138   %  9.6241
    69.000     618  -198.69037   21.79583  -176.89454   0.00009   139   %  9.7112
    69.500     621  -198.69283   21.79856  -176.89427   0.00037   140   %  9.7988
    70.000     624  -199.12376   22.23000  -176.89376   0.00088   141   %  9.8874
    70.500     627  -199.94599   23.05228  -176.89371   0.00094   142   %  9.9774
    71.000     631  -201.05264   24.15860  -176.89404   0.00062   143   % 10.0693
    71.500     635  -202.27748   25.38320  -176.89429   0.00038   144   % 10.1636
    72.000     640  -203.41499   26.52069  -176.89430   0.00037   145   % 10.2606
    72.500     645  -204.25640   27.36205  -176.89436   0.00033   146   % 10.3605
    73.000     650  -204.63552   27.74106  -176.89447   0.00022   147   % 10.4628
    73.500     655  -204.47686   27.58224  -176.89463   0.00008   148   % 10.5666
    74.000     660  -203.82918   26.93440  -176.89478  -0.00007   149   % 10.6708
    74.500     665  -202.86594   25.97106  -176.89488  -0.00016   150   % 10.7740


           INITIAL VELOCITY IN DRC (Angstroms/Femtosecond)
         0.01541        -0.01064        -0.01238
        -0.00661        -0.00649        -0.00138
         0.00200         0.00998        -0.00244
         0.01198        -0.00371        -0.00253
        -0.00202         0.02554         0.02842
        -0.01896        -0.00901         0.05424
        -0.00257        -0.00115        -0.00061
         0.00054        -0.00051        -0.00027
         0.00060        -0.00058        -0.00001
        -0.00478         0.00180        -0.01180
         0.00275         0.00143        -0.02895
        -0.01602        -0.03377         0.01064
         0.00582         0.03818         0.03653
        -0.00219        -0.00031        -0.00346
        -0.00036         0.00015        -0.00032
         0.00042         0.00039        -0.00050
         0.00528        -0.00102         0.00289
         0.00214        -0.00202        -0.00031
         0.00493         0.00218         0.00481
         0.00339        -0.01157        -0.03189
         0.02653        -0.06937        -0.06627
         0.00314        -0.00165         0.00069
         0.00033         0.00751        -0.01139
         0.00330        -0.02142        -0.01737
         0.11864        -0.04864        -0.49003
         0.00217         0.00086        -0.00212
 THE VIBRATIONAL FREQUENCY ( -1745.88CM(-1)) IS TOO SMALL
 FOR ONE QUANTUM TO BE USED
 INSTEAD 0.3KCAL/MOLE WILL BE USED TO START THE IRC

 TIME PRIORITY, INTERVAL = 0.50 FEMTOSECONDS



 FEMTOSECONDS  POINT  POTENTIAL + KINETIC  =   TOTAL     ERROR    REF%   MOVEMENT
     0.000       1  -177.19379    0.30000  -176.89379   0.00000     1   %  0.0000
     0.500       1  -177.20054   -0.35292  -177.55346  -0.65967     2   %  0.0123
     1.000       1  -177.22512   -0.57202  -177.79714  -0.90335     3   %  0.0245
     1.500       1  -177.26752   -0.35729  -177.62481  -0.73102     4   %  0.0369
     2.000       1  -177.32775    0.29126  -177.03649  -0.14270     5   %  0.0493
     2.500       1  -177.40581    1.37364  -176.03217   0.86162     6   %  0.0617
     3.000      10  -177.57458    0.68177  -176.89282   0.00097     7   %  0.0822
     3.500      13  -177.78547    0.89335  -176.89212   0.00167     8   %  0.1024
     4.000      16  -178.08245    1.18983  -176.89262   0.00118     9   %  0.1257
     4.500      19  -178.49454    1.60234  -176.89220   0.00160    10   %  0.1527
     5.000      22  -179.05807    2.16593  -176.89214   0.00166    11   %  0.1841
     5.500      25  -179.81391    2.92198  -176.89193   0.00186    12   %  0.2208
     6.000      29  -180.80218    3.91046  -176.89172   0.00207    13   %  0.2635
     6.500      32  -182.05292    5.16147  -176.89145   0.00235    14   %  0.3130
     7.000      36  -183.57229    6.68123  -176.89105   0.00275    15   %  0.3699
     7.500      39  -185.32885    8.43787  -176.89098   0.00282    16   %  0.4348
     8.000      42  -187.24589   10.35403  -176.89186   0.00194    17   %  0.5078
     8.500      46  -189.20917   12.31612  -176.89305   0.00075    18   %  0.5889
     9.000      51  -191.09321   14.20029  -176.89292   0.00090    19   %  0.6775
     9.500      56  -192.80156   15.90831  -176.89325   0.00057    20   %  0.7730
    10.000      61  -194.30740   17.41384  -176.89355   0.00027    21   %  0.8744
    10.500      66  -195.67119   18.77743  -176.89376   0.00007    22   %  0.9807
    11.000      71  -197.02011   20.12629  -176.89383   0.00001    23   %  1.0908
    11.500      76  -198.49076   21.59699  -176.89376   0.00008    24   %  1.2041
    12.000      81  -200.15858   23.26496  -176.89363   0.00023    25   %  1.3200
    12.500      86  -201.98886   25.09535  -176.89350   0.00036    26   %  1.4385
    13.000      91  -203.83565   26.94219  -176.89346   0.00041    27   %  1.5595
    13.500      96  -205.49103   28.59753  -176.89351   0.00037    28   %  1.6831
    14.000     101  -206.76101   29.86739  -176.89362   0.00027    29   %  1.8090
    14.500     106  -207.53380   30.64006  -176.89374   0.00016    30   %  1.9369
    15.000     111  -207.81435   30.92053  -176.89381   0.00010    31   %  2.0659
    15.500     116  -207.71831   30.82449  -176.89381   0.00011    32   %  2.1951
    16.000     121  -207.43636   30.54262  -176.89375   0.00019    33   %  2.3232
    16.500     126  -207.18692   30.29333  -176.89359   0.00036    34   %  2.4491
    17.000     130  -207.17305   30.27974  -176.89331   0.00064    35   %  2.5716
    17.500     134  -207.55076   30.65770  -176.89306   0.00090    36   %  2.6898
    18.000     138  -208.40927   31.51618  -176.89309   0.00089    37   %  2.8028
    18.500     142  -209.76239   32.86906  -176.89333   0.00066    38   %  2.9103
    19.000     147  -211.54664   34.65318  -176.89346   0.00054    39   %  3.0120
    19.500     152  -213.62717   36.73367  -176.89350   0.00051    40   %  3.1078
    20.000     157  -215.81267   38.91914  -176.89353   0.00050    41   %  3.1980
    20.500     162  -217.88384   40.99027  -176.89357   0.00047    42   %  3.2829
    21.000     167  -219.63630   42.74265  -176.89365   0.00040    43   %  3.3630
    21.500     172  -220.93324   44.03947  -176.89377   0.00029    44   %  3.4386
    22.000     177  -221.75299   44.85907  -176.89392   0.00017    45   %  3.5102
    22.500     182  -222.20994   45.31592  -176.89402   0.00007    46   %  3.5781
    23.000     187  -222.53073   45.63668  -176.89404   0.00007    47   %  3.6423
    23.500     192  -222.98300   46.08903  -176.89397   0.00016    48   %  3.7030
    24.000     197  -223.77820   46.88435  -176.89386   0.00029    49   %  3.7606
    24.500     202  -224.98717   48.09340  -176.89377   0.00039    50   %  3.8153
    25.000     207  -226.50728   49.61351  -176.89377   0.00041    51   %  3.8676
    25.500     212  -228.09693   51.20307  -176.89386   0.00034    52   %  3.9183
    26.000     217  -229.46180   52.56777  -176.89403   0.00019    53   %  3.9677
    26.500     222  -230.35384   53.45962  -176.89422   0.00001    54   %  4.0165
    27.000     227  -230.64304   53.74866  -176.89438  -0.00013    55   %  4.0651
    27.500     232  -230.34008   53.44561  -176.89446  -0.00019    56   %  4.1139
    28.000     237  -229.57234   52.67787  -176.89446  -0.00017    57   %  4.1630
    28.500     242  -228.53306   51.63867  -176.89439  -0.00009    58   %  4.2127
    29.000     247  -227.42699   50.53267  -176.89432   0.00001    59   %  4.2633
    29.500     252  -226.42788   49.53364  -176.89423   0.00011    60   %  4.3159
    30.000     257  -225.65407   48.75991  -176.89417   0.00019    61   %  4.3725
    30.500     262  -225.15948   48.26536  -176.89412   0.00025    62   %  4.4376
    31.000     267  -224.93516   48.04107  -176.89409   0.00030    63   %  4.5186
    31.500     272  -224.91720   48.02312  -176.89408   0.00033    64   %  4.6223
    32.000     277  -224.99923   48.10515  -176.89408   0.00035    65   %  4.7467
    32.500     282  -225.05021   48.15609  -176.89412   0.00032    66   %  4.8834
    33.000     287  -224.93935   48.04520  -176.89416   0.00030    67   %  5.0269
    33.500     292  -224.56816   47.67390  -176.89426   0.00021    68   %  5.1743
    34.000     297  -223.90476   47.01036  -176.89440   0.00009    69   %  5.3240
    34.500     302  -223.00918   46.11464  -176.89454  -0.00004    70   %  5.4750
    35.000     307  -222.03525   45.14062  -176.89464  -0.00011    71   %  5.6265
    35.500     312  -221.19911   44.30447  -176.89464  -0.00010    72   %  5.7777
    36.000     317  -220.71757   43.82296  -176.89461  -0.00006    73   %  5.9284
    36.500     320  -220.73574   43.84141  -176.89434   0.00023    74   %  6.0782
    37.000     324  -221.27259   44.37842  -176.89417   0.00041    75   %  6.2274
    37.500     329  -222.20798   45.31371  -176.89427   0.00033    76   %  6.3759
    38.000     334  -223.32021   46.42591  -176.89430   0.00031    77   %  6.5237
    38.500     339  -224.35686   47.46245  -176.89441   0.00022    78   %  6.6709
    39.000     344  -225.10950   48.21495  -176.89455   0.00010    79   %  6.8173
    39.500     349  -225.46546   48.57079  -176.89467  -0.00001    80   %  6.9627
    40.000     354  -225.42232   48.52758  -176.89475  -0.00006    81   %  7.1070
    40.500     359  -225.06855   48.17179  -176.89676  -0.00206    82   %  7.2498
    41.000     364  -224.54551   47.65079  -176.89473  -0.00001    83   %  7.3909
    41.500     369  -224.00616   47.11149  -176.89467   0.00007    84   %  7.5301
    42.000     374  -223.58429   46.68969  -176.89460   0.00015    85   %  7.6672
    42.500     379  -223.37548   46.48093  -176.89455   0.00022    86   %  7.8021
    43.000     384  -223.42844   46.53394  -176.89451   0.00027    87   %  7.9349
    43.500     389  -223.74241   46.84792  -176.89449   0.00031    88   %  8.0654
    44.000     394  -224.26706   47.37259  -176.89448   0.00034    89   %  8.1938
    44.500     399  -224.90472   48.01023  -176.89448   0.00035    90   %  8.3205
    45.000     404  -225.51776   48.62325  -176.89451   0.00033    91   %  8.4462
    45.500     409  -225.94581   49.05125  -176.89456   0.00030    92   %  8.5719
    46.000     414  -226.04039   49.14573  -176.89466   0.00022    93   %  8.6990
    46.500     419  -225.70711   48.81231  -176.89480   0.00010    94   %  8.8281
    47.000     424  -224.94950   48.05456  -176.89494  -0.00003    95   %  8.9593
    47.500     429  -223.89094   46.99590  -176.89504  -0.00011    96   %  9.0917
    48.000     434  -222.75641   45.86137  -176.89504  -0.00009    97   %  9.2247
    48.500     439  -221.81009   44.91515  -176.89494   0.00002    98   %  9.3577
    49.000     444  -221.26739   44.37259  -176.89479   0.00019    99   %  9.4908
    49.500     449  -221.21693   44.32224  -176.89469   0.00031   100   %  9.6251
    50.000     454  -221.58842   44.69376  -176.89467   0.00034   101   %  9.7601
    50.500     459  -222.18211   45.28736  -176.89475   0.00027   102   %  9.8947
    51.000     464  -222.74602   45.85111  -176.89491   0.00013   103   % 10.0287
    51.500     469  -223.06570   46.17059  -176.89510  -0.00004   104   % 10.1627
    52.000     474  -223.02972   46.13446  -176.89526  -0.00019   105   % 10.2976
    52.500     479  -222.65062   45.75528  -176.89534  -0.00026   106   % 10.4335
    53.000     484  -222.04318   45.14784  -176.89534  -0.00024   107   % 10.5701
    53.500     489  -221.37810   44.48284  -176.89526  -0.00014   108   % 10.7063
    54.000     494  -220.83226   43.93713  -176.89513   0.00001   109   % 10.8411
    54.500     499  -220.55043   43.65544  -176.89499   0.00016   110   % 10.9737
    55.000     504  -220.62290   43.72805  -176.89486   0.00031   111   % 11.1034
    55.500     509  -221.07697   44.18221  -176.89476   0.00042   112   % 11.2302
    56.000     514  -221.87678   44.98209  -176.89469   0.00050   113   % 11.3540
    56.500     519  -222.92812   46.03348  -176.89464   0.00057   114   % 11.4752
    57.000     524  -224.08761   47.19299  -176.89462   0.00060   115   % 11.5941
    57.500     529  -225.17943   48.28479  -176.89464   0.00060   116   % 11.7114
    58.000     534  -226.02351   49.12880  -176.89471   0.00055   117   % 11.8276
    58.500     539  -226.47484   49.58000  -176.89484   0.00044   118   % 11.9432
    59.000     544  -226.46681   49.57181  -176.89500   0.00030   119   % 12.0586
    59.500     549  -226.04231   49.14717  -176.89514   0.00017   120   % 12.1743
    60.000     554  -225.35422   48.45902  -176.89520   0.00013   121   % 12.2904
    60.500     559  -224.62512   47.72998  -176.89514   0.00021   122   % 12.4070
    61.000     564  -224.07473   47.17973  -176.89500   0.00036   123   % 12.5239
    61.500     569  -223.84194   46.94708  -176.89486   0.00052   124   % 12.6412
    62.000     574  -223.93555   47.04075  -176.89480   0.00060   125   % 12.7587
    62.500     579  -224.23574   47.34091  -176.89483   0.00058   126   % 12.8763
    63.000     584  -224.54468   47.64973  -176.89494   0.00049   127   % 12.9939
    63.500     589  -224.66132   47.76622  -176.89511   0.00034   128   % 13.1114
    64.000     594  -224.44728   47.55202  -176.89526   0.00020   129   % 13.2284
    64.500     599  -223.85933   46.96394  -176.89540   0.00008   130   % 13.3449
    65.000     604  -222.94470   46.04923  -176.89546   0.00003   131   % 13.4605
    65.500     609  -221.81036   44.91489  -176.89548   0.00003   132   % 13.5751
    66.000     614  -220.58564   43.69018  -176.89546   0.00007   133   % 13.6887
    66.500     619  -219.39347   42.49805  -176.89543   0.00011   134   % 13.8015
    67.000     624  -218.33682   41.44142  -176.89541   0.00015   135   % 13.9138
    67.500     629  -217.49648   40.60109  -176.89539   0.00018   136   % 14.0258
    68.000     634  -216.93276   40.03738  -176.89538   0.00020   137   % 14.1382
    68.500     639  -216.68318   39.78782  -176.89535   0.00024   138   % 14.2513
    69.000     644  -216.75261   39.85730  -176.89531   0.00030   139   % 14.3656
    69.500     649  -217.09879   40.20352  -176.89527   0.00035   140   % 14.4815
    70.000     654  -217.62222   40.72696  -176.89526   0.00037   141   % 14.5994
    70.500     659  -218.17214   41.27684  -176.89530   0.00035   142   % 14.7198
    71.000     664  -218.57679   41.68137  -176.89541   0.00026   143   % 14.8428
    71.500     669  -218.69475   41.79917  -176.89559   0.00010   144   % 14.9687
    72.000     674  -218.47093   41.57516  -176.89577  -0.00008   145   % 15.0977
    72.500     679  -217.97110   41.07519  -176.89590  -0.00019   146   % 15.2298
    73.000     684  -217.37273   40.47681  -176.89592  -0.00020   147   % 15.3648
    73.500     689  -216.90757   40.01176  -176.89581  -0.00007   148   % 15.5024
    74.000     694  -216.77559   39.87996  -176.89563   0.00012   149   % 15.6421
    74.500     699  -217.06695   40.17150  -176.89545   0.00032   150   % 15.7833



 **********************
 *                    *
 * JOB ENDED NORMALLY *
 *                    *
 **********************



 TOTAL JOB TIME:            60.70 SECONDS

 == MOPAC DONE ==
