 *******************************************************************************
 ** Site#: 37037        For non-commercial use only           Version 21.163W **
 *******************************************************************************
 ** Cite this program as: MOPAC2016, Version: 21.163W, James J. P. Stewart,   **
 ** Stewart Computational Chemistry, web: HTTP://OpenMOPAC.net. Days left: 365**
 *******************************************************************************
 **                                                                           **
 **                                MOPAC2016                                  **
 **                                                                           **
 *******************************************************************************

                              PM7 CALCULATION RESULTS

 *******************************************************************************
 *  CALCULATION DONE:                                Sat Jun 12 12:30:54 2021  *
 *  OPT        - OPTIMIZE COORDINATES OF ALL ATOMS
 *
 *
 *
 *                 CHARGE ON SYSTEM = -1
 *
 *
 *
 *  EPS=78.4   - USE ANDREAS KLAMT'S COSMO IMPLICIT SOLVATION MODEL
 *  PRECISE    - TIGHTER CRITERIA TO BE USED
 *  TS         - USE EF ROUTINE FOR TS SEARCH
 *  T=         - A TIME OF 172800.0 SECONDS REQUESTED
 *  DUMP=N     - RESTART FILE WRITTEN EVERY 7200.0 SECONDS REQUESTED
 *******************************************************************************
charge=-1 precise ts opt eps=78.4
 Refine the transition state geometry

  ATOM               CHEMICAL                 BOND LENGTH      BOND ANGLE     TWIST ANGLE 
 NUMBER               SYMBOL                  (ANGSTROMS)      (DEGREES)       (DEGREES) 
   (I)                                           NA:I           NB:NA:I       NC:NB:NA:I       NA    NB    NC 
     1       I(HETATM    1  I   HET A   1)    0.00000000       0.0000000       0.0000000   
     2       C(HETATM    2  C   HET A   1)    2.59333293  *    0.0000000       0.0000000        1     0     0
     3       H(HETATM    3  H   HET A   1)    1.08601790  *   91.7185726  *    0.0000000        2     1     0
     4       H(HETATM    4  H   HET A   1)    1.08609938  *   91.6858647  *  120.0149307  *     2     1     3
     5       H(HETATM    5  H   HET A   1)    1.08595602  *   91.6952992  *  119.9696175  *     2     1     4
     6      XX(HETATM    6  X   HET A   1)    2.59333293  *  179.9648995  *    0.0002635  *     2     1     3
     7       F(HETATM    7  F   HET A   1)   -0.60000000  *  180.0000000  *    0.0000000  *     6     2     3
 

 General Reference for PM7:
 "Optimization of Parameters for Semiempirical Methods VI: More Modifications to the 
 NDDO Approximations and Re-optimization of Parameters", J. J. P. Stewart, J. Mol. Mod., 1:32, 19 (2013)
 https://link.springer.com/article/10.1007/s00894-012-1667-x

           Empirical Formula: C H3 I F  =     6 atoms



      MOLECULAR POINT GROUP   :   C3v 


      RHF CALCULATION, NO. OF DOUBLY OCCUPIED LEVELS = 11


          Transition state refinement using EF

          HESSIAN CALCULATED NUMERICALLY

 CYCLE:     1 TIME:   0.090 TIME LEFT:  2.00D  GRAD.:     1.690 HEAT: -125.8510
 CYCLE:     2 TIME:   0.000 TIME LEFT:  2.00D  GRAD.:     0.142 HEAT: -125.8533
 CYCLE:     3 TIME:   0.016 TIME LEFT:  2.00D  GRAD.:     0.106 HEAT: -125.8524
 CYCLE:     4 TIME:   0.000 TIME LEFT:  2.00D  GRAD.:     0.049 HEAT: -125.8557

     GRADIENT =  0.04923 IS LESS THAN CUTOFF =  0.05000



 -------------------------------------------------------------------------------
 charge=-1 precise ts opt eps=78.4
 Refine the transition state geometry



     GEOMETRY OPTIMISED USING EIGENVECTOR FOLLOWING (TS).     
     SCF FIELD WAS ACHIEVED                                   


                              PM7 CALCULATION
                                                       MOPAC2016 (Version: 21.163W)
                                                       Sat Jun 12 12:30:54 2021
                                                       No. of days remaining = 365




          FINAL HEAT OF FORMATION =       -125.85566 KCAL/MOL =    -526.58007 KJ/MOL
          VAN DER WAALS AREA      =        112.78 SQUARE ANGSTROMS


          TOTAL ENERGY            =       -856.00452 EV
          ELECTRONIC ENERGY       =       -569.25166 EV  POINT GROUP:     C3v 
          CORE-CORE REPULSION     =       -286.75286 EV

          DIELECTRIC ENERGY       =         -2.89314 EV
          COSMO AREA              =        112.78 SQUARE ANGSTROMS
          COSMO VOLUME            =         95.40 CUBIC ANGSTROMS

          GRADIENT NORM           =          0.04923 = 0.02010 PER ATOM
          IONIZATION POTENTIAL    =          9.758107 EV
          HOMO LUMO ENERGIES (EV) =         -9.758 -0.689
          NO. OF FILLED LEVELS    =         11
          MOLECULAR WEIGHT        =        160.9376

          MOLECULAR DIMENSIONS (Angstroms)

            Atom       Atom       Distance
            F     6    I     1     4.59150
            H     3    H     4     1.88000
            H     5    H     3     1.62740


          SCF CALCULATIONS        =         21
 
          WALL-CLOCK TIME         =          0.141 SECONDS
          COMPUTATION TIME        =          0.141 SECONDS




  ATOM               CHEMICAL                 BOND LENGTH      BOND ANGLE     TWIST ANGLE 
 NUMBER               SYMBOL                  (ANGSTROMS)      (DEGREES)       (DEGREES) 
   (I)                                           NA:I           NB:NA:I       NC:NB:NA:I       NA    NB    NC 
     1       I(HETATM    1  I   HET A   1)    0.00000000       0.0000000       0.0000000   
     2       C(HETATM    2  C   HET A   1)    2.59206198  *    0.0000000       0.0000000        1     0     0
     3       H(HETATM    3  H   HET A   1)    1.08576162  *   91.8221317  *    0.0000000        2     1     0
     4       H(HETATM    4  H   HET A   1)    1.08580526  *   91.9225593  *  120.0387701  *     2     1     3
     5       H(HETATM    5  H   HET A   1)    1.08573377  *   91.9330567  *  119.9747323  *     2     1     4
     6      XX(HETATM    6  X   HET A   1)    2.50232930  *  179.7811164  *   -4.3831292  *     2     1     3
     7       F(HETATM    7  F   HET A   1)   -0.50289325  *  179.8165049  *   -2.9367201  *     6     2     3

                             CARTESIAN COORDINATES

   1    I        0.000000000     0.000000000     0.000000000
   2    C        2.592061983     0.000000000     0.000000000
   3    H        2.626585770     1.085212612     0.000000000
   4    H        2.628489332    -0.543232833     0.939438239
   5    H        2.628685742    -0.542336475    -0.939865772
   6    F        4.591492173     0.006007543    -0.000501265


           Empirical Formula: C H3 I F  =     6 atoms



      MOLECULAR POINT GROUP   :   C3v 


                  EIGENVALUES  
 -34.10243 -25.49712 -20.94683 -15.16257 -15.15940 -12.45814 -12.40572 -12.40390
  -9.85606  -9.76261  -9.75811  -0.68852   4.98446   5.24659   5.25083 129.79578
 129.79758 129.83566 130.11851 130.11855


              NET ATOMIC CHARGES AND DIPOLE CONTRIBUTIONS

  ATOM NO.                 TYPE                        CHARGE      No. of ELECS.   s-Pop       p-Pop       d-Pop       
    1          I(HETATM    1  I   HET A   1)          -0.749644        7.7496     1.98283     5.76363     0.00318
    2          C(HETATM    2  C   HET A   1)           0.118312        3.8817     1.20958     2.67211
    3          H(HETATM    3  H   HET A   1)           0.162399        0.8376     0.83760
    4          H(HETATM    4  H   HET A   1)           0.162945        0.8371     0.83705
    5          H(HETATM    5  H   HET A   1)           0.162236        0.8378     0.83776
    6          F(HETATM    7  F   HET A   1)          -0.856248        7.8562     1.99794     5.85831

          NET CHARGE ON RESIDUES

      Residue         Charge  Anion or
                              Cation?
      HET A   1       -1.000  ANION
 


 DIPOLE           X         Y         Z       TOTAL
 POINT-CHG.    -7.486    -0.023     0.005     7.486
 HYBRID         0.048     0.000    -0.001     0.048
 SUM           -7.439    -0.022     0.003     7.439


          ATOMIC ORBITAL ELECTRON POPULATIONS

                   Atom                  s        px        py        pz      x^2-y^2     xz        z^2       yz        xy
   I(HETATM    1  I   HET A   1)   1.98283   1.76370   1.99997   1.99997   0.00163   0.00050   0.00055   0.00000   0.00050
   C(HETATM    2  C   HET A   1)   1.20958   0.39619   1.13779   1.13813
   H(HETATM    3  H   HET A   1)   0.83760
   H(HETATM    4  H   HET A   1)   0.83705
   H(HETATM    5  H   HET A   1)   0.83776
   F(HETATM    7  F   HET A   1)   1.99794   1.85831   2.00000   2.00000
 *******************************************************************************
 ** Site#: 37037        For non-commercial use only           Version 21.163W **
 *******************************************************************************
 ** Cite this program as: MOPAC2016, Version: 21.163W, James J. P. Stewart,   **
 ** Stewart Computational Chemistry, web: HTTP://OpenMOPAC.net. Days left: 365**
 *******************************************************************************
 **                                                                           **
 **                                MOPAC2016                                  **
 **                                                                           **
 *******************************************************************************

                              PM7 CALCULATION RESULTS

 *******************************************************************************
 *  CALCULATION DONE:                                Sat Jun 12 12:30:54 2021  *
 *  PDBOUT     - PRINT GEOMETRY IN PDB FORMAT
 *
 *
 *
 *                 CHARGE ON SYSTEM = -1
 *
 *
 *
 *  EPS=78.4   - USE ANDREAS KLAMT'S COSMO IMPLICIT SOLVATION MODEL
 *  IRC=N      - INTRINSIC REACTION COORDINATE -1 DEFINED
 *  OLDGEO     - PREVIOUS GEOMETRY TO BE USED
 *  T=         - A TIME OF 172800.0 SECONDS REQUESTED
 *  DUMP=N     - RESTART FILE WRITTEN EVERY 7200.0 SECONDS REQUESTED
 *  HTML       - WRITE HTML SCRIPT TO GENERATE ANIMATION USING JSMOL
 *             - TO DISPLAY ENERGIES, DELETE KEYWORD "PDBOUT"
 *  X-PRIOR    - GEOMETRY CHANGES TAKE PRIORITY IN DRC
 *******************************************************************************
oldgeo eps=78.4 IRC=-1* charge=-1 x-priority=0.025 html pdbout
 Intrinsic reaction coordinate for I - CH3 - F  reaction
 (click on "Specific Script" to show charges)
  ATOM               CHEMICAL                 BOND LENGTH      BOND ANGLE     TWIST ANGLE 
 NUMBER               SYMBOL                  (ANGSTROMS)      (DEGREES)       (DEGREES) 
   (I)                                           NA:I           NB:NA:I       NC:NB:NA:I       NA    NB    NC 
     1       I(HETATM    1  I   HET A   1)    0.00000000       0.0000000       0.0000000   
     2       C(HETATM    2  C   HET A   1)    2.59206198  *    0.0000000       0.0000000        1     0     0
     3       H(HETATM    3  H   HET A   1)    1.08576162  *   91.8221317  *    0.0000000        2     1     0
     4       H(HETATM    4  H   HET A   1)    1.08580526  *   91.9225593  *  120.0387701  *     2     1     3
     5       H(HETATM    5  H   HET A   1)    1.08573377  *   91.9330567  *  119.9747323  *     2     1     4
     6      XX(HETATM    6  X   HET A   1)    2.50232930  *  179.7811164  *   -4.3831292  *     2     1     3
     7       F(HETATM    7  F   HET A   1)   -0.50289325  *  179.8165049  *   -2.9367201  *     6     2     3
 

 General Reference for PM7:
 "Optimization of Parameters for Semiempirical Methods VI: More Modifications to the 
 NDDO Approximations and Re-optimization of Parameters", J. J. P. Stewart, J. Mol. Mod., 1:32, 19 (2013)
 https://link.springer.com/article/10.1007/s00894-012-1667-x

           Empirical Formula: C H3 I F  =     6 atoms



      MOLECULAR POINT GROUP   :   C3v 


      RHF CALCULATION, NO. OF DOUBLY OCCUPIED LEVELS = 11



          HEAT OF FORMATION =    -125.855657 KCALS/MOLE


          GRADIENT NORM =   0.10573

          MOLECULAR WEIGHT =  160.94


          ESTIMATED TIME TO COMPLETE CALCULATION =        0.42 SECONDS

    FOR POINT-GROUP C3v  THERE ARE   6 UNIQUE SYMMETRY FUNCTIONS.

 STEP:   1 TIME =     0.00 SECS, INTEGRAL =      0.00 TIME LEFT: 172800.00
 STEP:   2 TIME =     0.02 SECS, INTEGRAL =      0.02 TIME LEFT: 172799.98
 STEP:   3 TIME =     0.02 SECS, INTEGRAL =      0.03 TIME LEFT: 172799.97
 STEP:   4 TIME =     0.00 SECS, INTEGRAL =      0.03 TIME LEFT: 172799.97
 STEP:   5 TIME =     0.02 SECS, INTEGRAL =      0.05 TIME LEFT: 172799.95
 STEP:   6 TIME =     0.02 SECS, INTEGRAL =      0.06 TIME LEFT: 172799.94
 STEP:   7 TIME =     0.00 SECS, INTEGRAL =      0.06 TIME LEFT: 172799.94
 STEP:   8 TIME =     0.02 SECS, INTEGRAL =      0.08 TIME LEFT: 172799.92
 STEP:   9 TIME =     0.02 SECS, INTEGRAL =      0.09 TIME LEFT: 172799.91
 STEP:  10                       INTEGRAL =      0.09 TIME LEFT: 172799.91
 STEP:  11                       INTEGRAL =      0.09 TIME LEFT: 172799.91
 STEP:  12                       INTEGRAL =      0.09 TIME LEFT: 172799.91
 STEP:  13                       INTEGRAL =      0.09 TIME LEFT: 172799.91
 STEP:  14                       INTEGRAL =      0.09 TIME LEFT: 172799.91
 STEP:  15                       INTEGRAL =      0.09 TIME LEFT: 172799.91
 STEP:  16 TIME =     0.00 SECS, INTEGRAL =      0.09 TIME LEFT: 172799.91
 STEP:  17 TIME =     0.02 SECS, INTEGRAL =      0.11 TIME LEFT: 172799.89
 STEP:  18 TIME =     0.00 SECS, INTEGRAL =      0.11 TIME LEFT: 172799.89
           INITIAL VELOCITY IN DRC (Angstroms/Femtosecond)
        -0.02749         0.00002        -0.00000
         0.59622         0.00052        -0.00005
         0.05300         0.02405         0.00001
         0.05294        -0.01211         0.02088
         0.05294        -0.01210        -0.02088
        -0.20172        -0.00044         0.00004

 GEOMETRY PRIORITY, STEP = 0.0250 ANGSTROMS



     POINT   POTENTIAL  +  ENERGY LOST   =   TOTAL      ERROR    REF%   MOVEMENT
       1    -125.85566      0.00000       -125.85566   0.00000     1   %  0.0000
      17    -125.94265      0.03826       -125.90439  -0.00248     2   %  0.0250
      27    -126.16654      0.22323       -125.94331  -0.04141     3   %  0.0492
      48    -126.60268      0.52529       -126.07739  -0.17548     4   %  0.0735
      64    -127.05232      0.95772       -126.09460  -0.19270     5   %  0.0999
      75    -127.56582      1.44825       -126.11757  -0.21567     6   %  0.1249
      87    -128.14035      2.00690       -126.13345  -0.23155     7   %  0.1499
     104    -128.76559      2.60378       -126.16181  -0.25991     8   %  0.1742
     123    -129.44885      3.27420       -126.17464  -0.27274     9   %  0.1997
     140    -130.10969      3.95734       -126.15236  -0.25045    10   %  0.2245
     159    -130.83467      4.66028       -126.17438  -0.27248    11   %  0.2491
     172    -131.59537      5.39405       -126.20132  -0.29942    12   %  0.2743
     185    -132.36807      6.14193       -126.22615  -0.32424    13   %  0.2998
     202    -133.13367      6.87406       -126.25961  -0.35771    14   %  0.3248
     217    -133.88165      7.59981       -126.28184  -0.37994    15   %  0.3498
     232    -134.63241      8.31737       -126.31504  -0.41314    16   %  0.3747
     249    -135.33063      8.99102       -126.33960  -0.43770    17   %  0.3985
     266    -136.08152      9.70936       -126.37216  -0.47025    18   %  0.4245
     290    -136.94683     10.32356       -126.62327  -0.72136    19   %  0.4472
     310    -137.70840     11.03617       -126.67223  -0.77032    20   %  0.4743
     321    -138.36142     11.66563       -126.69579  -0.79389    21   %  0.4991
     332    -138.98967     12.27159       -126.71808  -0.81617    22   %  0.5240
     350    -139.32205     12.85129       -126.47076  -0.56886    23   %  0.5488
     373    -140.15355     13.40266       -126.75089  -0.84899    24   %  0.5736
     399    -140.56942     13.91003       -126.65939  -0.75748    25   %  0.5976
     415    -141.10764     14.42361       -126.68403  -0.78212    26   %  0.6232
     429    -141.58829     14.89165       -126.69664  -0.79474    27   %  0.6480
     447    -141.96867     15.33258       -126.63609  -0.73418    28   %  0.6728
     463    -142.40106     15.74357       -126.65749  -0.75558    29   %  0.6976
     477    -142.81151     16.12459       -126.68692  -0.78502    30   %  0.7224
     493    -143.19287     16.47505       -126.71782  -0.81592    31   %  0.7472
     507    -143.54246     16.79629       -126.74617  -0.84427    32   %  0.7719
     523    -143.83249     17.08392       -126.74857  -0.84667    33   %  0.7964
     536    -144.11842     17.34410       -126.77432  -0.87242    34   %  0.8209
     562    -144.17432     17.58465       -126.58967  -0.68777    35   %  0.8462
     577    -144.40894     17.79139       -126.61756  -0.71565    36   %  0.8710
     593    -144.61003     17.97236       -126.63767  -0.73577    37   %  0.8958
     610    -144.77802     18.13057       -126.64746  -0.74555    38   %  0.9205
     634    -144.93804     18.27054       -126.66751  -0.76560    39   %  0.9451
     654    -145.10532     18.39967       -126.70566  -0.80375    40   %  0.9690
     676    -145.27926     18.53049       -126.74876  -0.84686    41   %  0.9921
     705    -145.33256     18.67564       -126.65692  -0.75502    42   %  1.0141
     735    -145.53396     18.83702       -126.69694  -0.79504    43   %  1.0349
     763    -145.75358     19.00072       -126.75286  -0.85095    44   %  1.0549
     796    -146.00000     19.15464       -126.84536  -0.94345    45   %  1.0746
     827    -146.18067     19.29438       -126.88628  -0.98438    46   %  1.0943
     854    -146.34945     19.42133       -126.92811  -1.02621    47   %  1.1140
     883    -146.48023     19.53624       -126.94400  -1.04209    48   %  1.1337
     915    -146.43447     19.63777       -126.79670  -0.89479    49   %  1.1532


           POTENTIAL ENERGY HAS STOPPED DROPPING

           INITIAL VELOCITY IN DRC (Angstroms/Femtosecond)
         0.02749        -0.00002         0.00000
        -0.59622        -0.00052         0.00005
        -0.05300        -0.02405        -0.00001
        -0.05294         0.01211        -0.02088
        -0.05294         0.01210         0.02088
         0.20172         0.00044        -0.00004

 GEOMETRY PRIORITY, STEP = 0.0250 ANGSTROMS



     POINT   POTENTIAL  +  ENERGY LOST   =   TOTAL      ERROR    REF%   MOVEMENT
       1    -125.85566      0.00000       -125.85566   0.00000     1   %  0.0000
      18    -125.89936      0.03008       -125.86928  -0.00304     2   %  0.0227
      23    -126.13404      0.25244       -125.88159  -0.01536     3   %  0.0499
      30    -126.45805      0.62580       -125.83226   0.03398     4   %  0.0748
      37    -126.93966      1.11324       -125.82642   0.03982     5   %  0.0973
      44    -127.59315      1.75340       -125.83975   0.02649     6   %  0.1204
      55    -128.61996      2.74783       -125.87213  -0.00589     7   %  0.1492
      60    -129.49721      3.61473       -125.88248  -0.01624     8   %  0.1706
      66    -130.66631      4.76803       -125.89827  -0.03203     9   %  0.1956
      71    -132.06287      6.15457       -125.90830  -0.04206    10   %  0.2223
      73    -132.92915      7.02122       -125.90794  -0.04170    11   %  0.2378
      80    -134.96821      9.01159       -125.95661  -0.09038    12   %  0.2708
      84    -136.25509     10.29955       -125.95553  -0.08930    13   %  0.2908
      96    -138.18550     12.17730       -126.00819  -0.14196    14   %  0.3183
     101    -140.10646     14.08964       -126.01682  -0.15058    15   %  0.3449
     105    -141.88647     15.87888       -126.00759  -0.14135    16   %  0.3688
     111    -143.82273     17.79402       -126.02870  -0.16247    17   %  0.3936
     115    -146.00174     19.96372       -126.03801  -0.17178    18   %  0.4210
     122    -147.78835     21.75382       -126.03453  -0.16829    19   %  0.4432
     128    -149.85670     23.83635       -126.02035  -0.15411    20   %  0.4687
     136    -152.07297     26.03739       -126.03558  -0.16934    21   %  0.4956
     157    -153.88867     27.80634       -126.08234  -0.21610    22   %  0.5172
     162    -155.87359     29.80266       -126.07093  -0.20470    23   %  0.5419
     166    -158.15811     32.08314       -126.07497  -0.20873    24   %  0.5706
     170    -160.07277     34.00390       -126.06887  -0.20264    25   %  0.5955
     173    -161.82728     35.76540       -126.06188  -0.19565    26   %  0.6190
     177    -163.55605     37.50483       -126.05122  -0.18498    27   %  0.6435
     183    -165.25486     39.19883       -126.05603  -0.18979    28   %  0.6688
     187    -166.66977     40.61840       -126.05136  -0.18513    29   %  0.6915
     193    -168.28865     42.25557       -126.03308  -0.16684    30   %  0.7203
     198    -169.27215     43.24952       -126.02262  -0.15639    31   %  0.7398
     205    -170.62830     44.60861       -126.01969  -0.15345    32   %  0.7704
     210    -171.44262     45.43227       -126.01036  -0.14412    33   %  0.7924
     215    -172.19430     46.19406       -126.00024  -0.13400    34   %  0.8172
     223    -172.74044     46.78687       -125.95357  -0.08733    35   %  0.8422
     230    -173.19575     47.25379       -125.94196  -0.07572    36   %  0.8695
     235    -173.47130     47.53950       -125.93180  -0.06556    37   %  0.8929
     238    -173.68708     47.75821       -125.92887  -0.06264    38   %  0.9154
     240    -173.86101     47.93250       -125.92851  -0.06228    39   %  0.9336
     241    -173.97736     48.04561       -125.93175  -0.06552    40   %  0.9445
     244    -174.24379     48.27801       -125.96578  -0.09954    41   %  0.9643
     247    -174.42123     48.45079       -125.97043  -0.10419    42   %  0.9786
     249    -174.59571     48.61958       -125.97614  -0.10990    43   %  0.9928
     252    -174.76952     48.78765       -125.98186  -0.11563    44   %  1.0072
     254    -174.93781     48.95135       -125.98645  -0.12022    45   %  1.0215
     257    -175.10358     49.11067       -125.99290  -0.12667    46   %  1.0359
     260    -175.25708     49.26677       -125.99031  -0.12407    47   %  1.0503
     262    -175.41420     49.41932       -125.99488  -0.12864    48   %  1.0647
     265    -175.53865     49.55112       -125.98752  -0.12129    49   %  1.0775
     268    -175.70721     49.71447       -125.99274  -0.12650    50   %  1.0937
     270    -175.85108     49.85522       -125.99587  -0.12963    51   %  1.1081
     272    -175.99639     49.99598       -126.00041  -0.13417    52   %  1.1227
     274    -176.13368     50.13146       -126.00222  -0.13598    53   %  1.1372
     276    -176.27283     50.26627       -126.00656  -0.14032    54   %  1.1519
     278    -176.40787     50.39825       -126.00962  -0.14338    55   %  1.1668
     280    -176.52215     50.50919       -126.01296  -0.14672    56   %  1.1793
     284    -176.66033     50.65011       -126.01022  -0.14398    57   %  1.1960
     287    -176.78441     50.76762       -126.01679  -0.15055    58   %  1.2102
     290    -176.91156     50.89015       -126.02140  -0.15517    59   %  1.2254
     292    -177.03124     51.00548       -126.02576  -0.15953    60   %  1.2400
     295    -177.14992     51.11926       -126.03066  -0.16443    61   %  1.2547
     297    -177.24675     51.21236       -126.03439  -0.16815    62   %  1.2670
     303    -177.27537     51.33965       -125.93572  -0.06948    63   %  1.2844
     306    -177.38523     51.44451       -125.94072  -0.07448    64   %  1.2990
     309    -177.48909     51.54713       -125.94196  -0.07572    65   %  1.3138
     311    -177.59451     51.64761       -125.94691  -0.08067    66   %  1.3286
     314    -177.69446     51.74600       -125.94846  -0.08222    67   %  1.3434
     315    -177.77932     51.83617       -125.94315  -0.07692    68   %  1.3575
     320    -177.87714     51.93552       -125.94162  -0.07539    69   %  1.3732
     323    -177.97307     52.02661       -125.94646  -0.08023    70   %  1.3880
     326    -178.07250     52.11577       -125.95673  -0.09049    71   %  1.4030
     330    -178.15819     52.19155       -125.96664  -0.10040    72   %  1.4160
     336    -178.25225     52.28738       -125.96487  -0.09863    73   %  1.4329
     342    -178.24734     52.37123       -125.87611  -0.00988    74   %  1.4481
     345    -178.33136     52.45062       -125.88074  -0.01450    75   %  1.4669
     348    -178.41378     52.52922       -125.88457  -0.01833    76   %  1.4915
     350    -178.49505     52.60588       -125.88918  -0.02294    77   %  1.5163
     352    -178.55415     52.66288       -125.89127  -0.02503    78   %  1.5349
     355    -178.62647     52.79314       -125.83333   0.03290    79   %  1.5582
     362    -178.70168     52.86702       -125.83466   0.03158    80   %  1.5822
     365    -178.77695     52.93672       -125.84024   0.02600    81   %  1.6070
     368    -178.84620     53.00516       -125.84104   0.02520    82   %  1.6321
     370    -178.87913     53.03892       -125.84020   0.02603    83   %  1.6444
     377    -178.96701     53.14868       -125.81833   0.04791    84   %  1.6798
     380    -179.03668     53.21442       -125.82226   0.04398    85   %  1.7057
     383    -179.10083     53.27401       -125.82682   0.03942    86   %  1.7298
     385    -179.15273     53.32431       -125.82842   0.03781    87   %  1.7497
     395    -179.22541     53.42715       -125.79826   0.06797    88   %  1.7779
     401    -179.18470     53.48443       -125.70027   0.16597    89   %  1.8031
     406    -179.24337     53.53942       -125.70394   0.16229    90   %  1.8280
     408    -179.29994     53.59353       -125.70642   0.15982    91   %  1.8529
     409    -179.35899     53.64903       -125.70995   0.15628    92   %  1.8795
     411    -179.37728     53.67926       -125.69802   0.16821    93   %  1.8894
     419    -179.43209     53.79798       -125.63410   0.23214    94   %  1.9121
     422    -179.48756     53.84924       -125.63832   0.22792    95   %  1.9384
     424    -179.51820     53.88226       -125.63594   0.23030    96   %  1.9533
     439    -179.62828     54.18743       -125.44085   0.42538    97   %  2.0094
     441    -179.65837     54.21606       -125.44231   0.42393    98   %  2.0255
     459    -179.74926     54.52972       -125.21954   0.64670    99   %  2.0788
     462    -179.78865     54.56381       -125.22484   0.64140   100   %  2.1030
     473    -179.82356     54.65464       -125.16891   0.69732   101   %  2.1200
     476    -179.87142     54.69540       -125.17602   0.69022   102   %  2.1464
     481    -179.87877     54.73737       -125.14141   0.72483   103   %  2.1651
     492    -179.92424     54.81157       -125.11267   0.75357   104   %  2.1954
     495    -179.95786     54.82582       -125.13204   0.73420   105   %  2.2212
     500    -179.96318     54.97686       -124.98632   0.87992   106   %  2.2230
     512    -180.00222     55.01247       -124.98975   0.87649   107   %  2.2461
     516    -180.03212     55.04418       -124.98794   0.87830   108   %  2.2683
     526    -180.07680     55.12418       -124.95263   0.91361   109   %  2.2966
     529    -180.10744     55.15149       -124.95594   0.91029   110   %  2.3182
     530    -180.12330     55.16694       -124.95636   0.90988   111   %  2.3324
     531    -179.71416     55.26115       -124.45302   1.41322   112   %  2.3229
     535    -180.14342     56.02946       -124.11396   1.75228   113   %  2.3462
     545    -180.17214     56.05388       -124.11825   1.74799   114   %  2.3654
     547    -180.19239     56.07327       -124.11913   1.74711   115   %  2.3834
     564    -180.26365     56.63345       -123.63019   2.23604   116   %  2.4361
     566    -180.09660     56.93580       -123.16079   2.70544   117   %  2.4383
     571    -180.26476     57.11166       -123.15310   2.71314   118   %  2.4499
     580    -180.30555     57.14870       -123.15685   2.70939   119   %  2.4701
     583    -180.33970     57.17400       -123.16570   2.70054   120   %  2.4969
     585    -180.32668     57.19492       -123.13176   2.73447   121   %  2.5075
     600    -180.37157     57.41077       -122.96080   2.90544   122   %  2.5282
     602    -180.37891     57.42556       -122.95335   2.91289   123   %  2.5408
     616    -180.41635     57.58201       -122.83434   3.03190   124   %  2.5700
     618    -180.38782     57.64253       -122.74530   3.12094   125   %  2.5886
     632    -180.44730     57.72824       -122.71906   3.14718   126   %  2.5962
     635    -180.45700     57.74076       -122.71624   3.15000   127   %  2.6108
     652    -180.48632     57.97548       -122.51084   3.35539   128   %  2.6354
     654    -180.38230     58.01635       -122.36595   3.50028   129   %  2.6417
     658    -180.50366     58.28971       -122.21395   3.65229   130   %  2.6546
     668    -180.51737     58.31009       -122.20728   3.65895   131   %  2.6740
     681    -180.54701     58.44727       -122.09974   3.76650   132   %  2.7010
     683    -180.55296     58.45297       -122.10000   3.76624   133   %  2.7099
     741    -180.62382     60.03209       -120.59173   5.27451   134   %  2.7933
     754    -180.63902     60.22541       -120.41361   5.45263   135   %  2.8138
     768    -180.66070     60.33257       -120.32813   5.53811   136   %  2.8415
     786    -180.67543     60.90255       -119.77288   6.09336   137   %  2.8654
     801    -180.68602     61.09106       -119.59496   6.27128   138   %  2.8807
     818    -180.70149     61.21325       -119.48824   6.37800   139   %  2.9084
     819    -180.70315     61.21681       -119.48634   6.37990   140   %  2.9134
     820    -180.51581     61.26350       -119.25231   6.61392   141   %  2.9305
     833    -180.71382     61.70298       -119.01083   6.85541   142   %  2.9285
     849    -180.71984     61.79045       -118.92939   6.93684   143   %  2.9528
     850    -180.70910     61.79719       -118.91190   6.95433   144   %  2.9528
     856    -180.71329     62.04967       -118.66362   7.20261   145   %  2.9640
     869    -180.72889     62.07462       -118.65427   7.21197   146   %  2.9718
     886    -180.72967     62.20616       -118.52350   7.34273   147   %  2.9959
     907    -180.74706     62.56497       -118.18209   7.68415   148   %  3.0235
     924    -180.65011     62.82006       -117.83006   8.03618   149   %  3.0349
     934    -180.66337     62.84717       -117.81620   8.05003   150   %  3.0486
     949    -180.66174     62.99192       -117.66981   8.19642   151   %  3.0653


           POTENTIAL ENERGY HAS STOPPED DROPPING


 **********************
 *                    *
 * JOB ENDED NORMALLY *
 *                    *
 **********************



 TOTAL JOB TIME:            10.79 SECONDS

 == MOPAC DONE ==
