 *******************************************************************************
 ** Cite this program as: MOPAC2016, Version: 22.066W, James J. P. Stewart,   **
 **                           web-site: HTTP://OpenMOPAC.net.                 **
 *******************************************************************************
 **                                                                           **
 **                                MOPAC2016                                  **
 **                                                                           **
 *******************************************************************************

                              PM6-D3H4 CALCULATION RESULTS

 *******************************************************************************
 *  CALCULATION DONE:                                Mon May  9 22:42:18 2022  *
 *  PM6-D3H4   - CORRECT DISPERSION AND HYDROGEN BOND TERMS USING THE D3H4 METHOD
 *
 *
 *
 *                 CHARGE ON SYSTEM = 0
 *
 *
 *
 *  PRECISE    - TIGHTER CRITERIA TO BE USED
 *  XYZ        - CARTESIAN COORDINATE SYSTEM TO BE USED
 *  SADDLE     - TRANSITION STATE TO BE OPTIMIZED
 *  T=         - A TIME OF 172800.0 SECONDS REQUESTED
 *  DUMP=N     - RESTART FILE WRITTEN EVERY 7200.0 SECONDS REQUESTED
 *******************************************************************************
PM6-D3H4 CHARGE=0 PRECISE XYZ SADDLE


   ATOM   CHEMICAL          X               Y               Z
  NUMBER   SYMBOL      (ANGSTROMS)     (ANGSTROMS)     (ANGSTROMS)
 
     1       O          0.00000000  *   0.00000000  *   0.00000000  *
     2       C          1.21175168  *   0.00000000  *   0.00000000  *
     3       C          1.96591609  *   1.26274125  *   0.00000000  *
     4       C          3.30581850  *   1.27581503  *   0.09928989  *
     5       C          4.06560128  *   0.04389155  *   0.19265804  *
     6       C          3.45697195  *  -1.15232784  *   0.14198299  *
     7       C          1.97947984  *  -1.31018629  *   0.01914780  *
     8       H          1.36503129  *   2.16663545  *  -0.07445062  *
     9       H          3.87026567  *   2.20982790  *   0.11078851  *
    10       H          5.14481296  *   0.13369786  *   0.29809013  *
    11       C          1.65204590  *  -2.13307132  *  -1.24544348  *
    12       H          1.31977023  *  -2.40820591  *   1.72905108  *
    13       C          0.23757313  *  -2.62175573  *  -1.23401148  *
    14       H          2.36237497  *  -2.98353055  *  -1.32227600  *
    15       H          1.82863682  *  -1.51599267  *  -2.15189379  *
    16       C         -0.08176153  *  -3.91507825  *  -1.22728259  *
    17       H         -0.52243820  *  -1.83652554  *  -1.24097751  *
    18       H          0.64021653  *  -4.71613089  *  -1.21359167  *
    19       H         -1.09915337  *  -4.27327333  *  -1.22941531  *
    20       O          1.08090534  *  -3.15924850  *   2.28505812  *
    21       C         -0.13057076  *  -3.14604571  *   2.27719737  *
    22       C         -0.90113170  *  -4.39848686  *   2.26577794  *
    23       C         -2.23971862  *  -4.39263876  *   2.14886521  *
    24       C         -2.98123013  *  -3.15065481  *   2.04377101  *
    25       C         -2.35719262  *  -1.96253984  *   2.10546398  *
    26       C         -0.88086643  *  -1.82617504  *   2.25768703  *
    27       H         -0.31385076  *  -5.30992231  *   2.35002764  *
    28       H         -2.81679396  *  -5.31859117  *   2.13090982  *
    29       H         -4.05949170  *  -3.22541891  *   1.91838993  *
    30       H         -2.90164888  *  -1.01956194  *   2.03091111  *
    31       C         -0.56202008  *  -1.02132021  *   3.53627710  *
    32       H         -0.21556091  *  -0.72712107  *   0.54895727  *
    33       C          0.85129356  *  -0.52912582  *   3.53309050  *
    34       H         -0.73769718  *  -1.65261590  *   4.43294443  *
    35       H         -1.27561261  *  -0.17494778  *   3.62409291  *
    36       C          1.16867159  *   0.76456321  *   3.55162875  *
    37       H          1.61218578  *  -1.31357407  *   3.52265249  *
    38       H          0.44511024  *   1.56427688  *   3.55550980  *
    39       H          2.18539711  *   1.12447577  *   3.55946383  *
    40       H          4.01596216  *  -2.08727763  *   0.20607024  *
 


          CARTESIAN COORDINATES 

    NO.       ATOM           X           Y           Z

     1         O          0.0000      0.0000      0.0000
     2         C          1.2118      0.0000      0.0000
     3         C          1.9659      1.2627      0.0000
     4         C          3.3058      1.2758      0.0993
     5         C          4.0656      0.0439      0.1927
     6         C          3.4570     -1.1523      0.1420
     7         C          1.9795     -1.3102      0.0191
     8         H          1.3650      2.1666     -0.0745
     9         H          3.8703      2.2098      0.1108
    10         H          5.1448      0.1337      0.2981
    11         C          1.6520     -2.1331     -1.2454
    12         H          1.3198     -2.4082      1.7291
    13         C          0.2376     -2.6218     -1.2340
    14         H          2.3624     -2.9835     -1.3223
    15         H          1.8286     -1.5160     -2.1519
    16         C         -0.0818     -3.9151     -1.2273
    17         H         -0.5224     -1.8365     -1.2410
    18         H          0.6402     -4.7161     -1.2136
    19         H         -1.0992     -4.2733     -1.2294
    20         O          1.0809     -3.1592      2.2851
    21         C         -0.1306     -3.1460      2.2772
    22         C         -0.9011     -4.3985      2.2658
    23         C         -2.2397     -4.3926      2.1489
    24         C         -2.9812     -3.1507      2.0438
    25         C         -2.3572     -1.9625      2.1055
    26         C         -0.8809     -1.8262      2.2577
    27         H         -0.3139     -5.3099      2.3500
    28         H         -2.8168     -5.3186      2.1309
    29         H         -4.0595     -3.2254      1.9184
    30         H         -2.9016     -1.0196      2.0309
    31         C         -0.5620     -1.0213      3.5363
    32         H         -0.2156     -0.7271      0.5490
    33         C          0.8513     -0.5291      3.5331
    34         H         -0.7377     -1.6526      4.4329
    35         H         -1.2756     -0.1749      3.6241
    36         C          1.1687      0.7646      3.5516
    37         H          1.6122     -1.3136      3.5227
    38         H          0.4451      1.5643      3.5555
    39         H          2.1854      1.1245      3.5595
    40         H          4.0160     -2.0873      0.2061

 General Reference for PM6:
 "Optimization of Parameters for Semiempirical Methods V: Modification of NDDO Approximations
 and Application to 70 Elements", J. J. P. Stewart, J. Mol. Mod., 13, 1173-1213 (2007)
 URL: https://link.springer.com/article/10.1007/s00894-007-0233-4

           Empirical Formula: C18 H20 O2  =    40 atoms



      MOLECULAR POINT GROUP   :   Ci  


      RHF CALCULATION, NO. OF DOUBLY OCCUPIED LEVELS = 52



  CARTESIAN GEOMETRY OF FIRST SYSTEM


   1    O          0.00000       0.00000       0.00000
   2    C          1.21175       0.00000       0.00000
   3    C          1.96592       1.26274       0.00000
   4    C          3.30582       1.27582       0.09929
   5    C          4.06560       0.04389       0.19266
   6    C          3.45697      -1.15233       0.14198
   7    C          1.97948      -1.31019       0.01915
   8    H          1.36503       2.16664      -0.07445
   9    H          3.87027       2.20983       0.11079
  10    H          5.14481       0.13370       0.29809
  11    C          1.65205      -2.13307      -1.24544
  12    H          1.62855      -1.89427       0.92872
  13    C          0.23757      -2.62176      -1.23401
  14    H          2.36237      -2.98353      -1.32228
  15    H          1.82864      -1.51599      -2.15189
  16    C         -0.08176      -3.91508      -1.22728
  17    H         -0.52244      -1.83653      -1.24098
  18    H          0.64022      -4.71613      -1.21359
  19    H         -1.09915      -4.27327      -1.22942
  20    O          1.06773      -3.65760       2.23414
  21    C         -0.14374      -3.64440       2.22628
  22    C         -0.91430      -4.89684       2.21486
  23    C         -2.25289      -4.89099       2.09795
  24    C         -2.99440      -3.64901       1.99285
  25    C         -2.37036      -2.46090       2.05455
  26    C         -0.89404      -2.32453       2.20677
  27    H         -0.32702      -5.80828       2.29911
  28    H         -2.82997      -5.81695       2.07999
  29    H         -4.07266      -3.72377       1.86747
  30    H         -2.91482      -1.51792       1.97999
  31    C         -0.57519      -1.51968       3.48536
  32    H         -0.51488      -1.73676       1.31121
  33    C          0.83812      -1.02748       3.48217
  34    H         -0.75087      -2.15097       4.38203
  35    H         -1.28878      -0.67330       3.57318
  36    C          1.15550       0.26621       3.50071
  37    H          1.59901      -1.81193       3.47173
  38    H          0.43194       1.06592       3.50459
  39    H          2.17222       0.62612       3.50855
  40    H          4.01596      -2.08728       0.20607


  CARTESIAN GEOMETRY OF SECOND SYSTEM


   1    O         -0.07637      -0.20623       0.07481
   2    C          1.13457      -0.16649       0.05488
   3    C          1.84804       1.11832       0.11416
   4    C          3.18844       1.16973       0.19197
   5    C          3.98862      -0.03990       0.20274
   6    C          3.41754      -1.25070       0.09425
   7    C          1.94382      -1.44979      -0.01302
   8    H          1.21744       2.00477       0.10104
   9    H          3.72300       2.11963       0.24719
  10    H          5.06617       0.07919       0.29533
  11    C          1.61967      -2.21059      -1.31673
  12    H          1.35075      -2.66323       1.64241
  13    C          0.22191      -2.74527      -1.30979
  14    H          2.35518      -3.03162      -1.45340
  15    H          1.75994      -1.53807      -2.18947
  16    C         -0.05593      -4.04671      -1.37124
  17    H         -0.56270      -1.98625      -1.25966
  18    H          0.69130      -4.82315      -1.41493
  19    H         -1.06128      -4.43740      -1.37697
  20    O          1.14610      -3.45177       2.15874
  21    C         -0.06512      -3.47789       2.17157
  22    C         -0.79552      -4.75231       2.10175
  23    C         -2.13553      -4.78381       2.00739
  24    C         -2.91798      -3.56288       1.98519
  25    C         -2.33104      -2.36028       2.10396
  26    C         -0.85727      -2.18433       2.23937
  27    H         -0.17809      -5.64729       2.12444
  28    H         -2.68308      -5.72572       1.94639
  29    H         -3.99543      -3.66580       1.87352
  30    H         -2.90650      -1.43297       2.09203
  31    C         -0.54087      -1.44260       3.55617
  32    H         -0.25861      -0.96974       0.58508
  33    C          0.85577      -0.90491       3.55768
  34    H         -0.67995      -2.12872       4.41832
  35    H         -1.27931      -0.62636       3.70362
  36    C          1.13211       0.39541       3.64441
  37    H          1.64092      -1.66215       3.49021
  38    H          0.38366       1.16947       3.70559
  39    H          2.13684       0.78747       3.65594
  40    H          4.00707      -2.16894       0.09595


   "DISTANCE":     1.887793


  REACTION COORDINATE VECTOR


   1    O          0.07637       0.20623      -0.07481
   2    C          0.07719       0.16649      -0.05488
   3    C          0.11787       0.14442      -0.11416
   4    C          0.11738       0.10608      -0.09268
   5    C          0.07698       0.08380      -0.01008
   6    C          0.03944       0.09838       0.04773
   7    C          0.03566       0.13960       0.03217
   8    H          0.14759       0.16187      -0.17549
   9    H          0.14727       0.09019      -0.13640
  10    H          0.07864       0.05451       0.00276
  11    C          0.03237       0.07751       0.07129
  12    H          0.27781       0.76896      -0.71369
  13    C          0.01566       0.12352       0.07578
  14    H          0.00720       0.04809       0.13112
  15    H          0.06870       0.02208       0.03757
  16    C         -0.02583       0.13163       0.14396
  17    H          0.04026       0.14972       0.01868
  18    H         -0.05108       0.10702       0.20134
  19    H         -0.03787       0.16412       0.14755
  20    O         -0.07837      -0.20583       0.07540
  21    C         -0.07862      -0.16651       0.05471
  22    C         -0.11878      -0.14453       0.11311
  23    C         -0.11736      -0.10718       0.09056
  24    C         -0.07642      -0.08613       0.00766
  25    C         -0.03932      -0.10062      -0.04941
  26    C         -0.03677      -0.14020      -0.03260
  27    H         -0.14893      -0.16099       0.17467
  28    H         -0.14689      -0.09122       0.13360
  29    H         -0.07724      -0.05797      -0.00605
  30    H         -0.00832      -0.08495      -0.11204
  31    C         -0.03432      -0.07708      -0.07081
  32    H         -0.25626      -0.76702       0.72613
  33    C         -0.01765      -0.12257      -0.07551
  34    H         -0.07092      -0.02225      -0.03630
  35    H         -0.00947      -0.04694      -0.13045
  36    C          0.02339      -0.12920      -0.14370
  37    H         -0.04191      -0.14978      -0.01847
  38    H          0.04828      -0.10355      -0.20100
  39    H          0.03539      -0.16135      -0.14739
  40    H          0.00889       0.08166       0.11012
 *+*+*+*+*+*+*+*+*+*+*+*+*+*+*+*+*+*+*+*+*+*+*+*+*+*+*+*+*+*+*+*+*+*+*+*+*+*+*+*+
            BAR SHORTENED BY       0.000 PERCENT
 GRADIENT CRITERION IN FLEPO =     0.200


          FOR POINT    1 SECOND STRUCTURE
 DISTANCE A - B      1.887793
 HEAT               -4.418060
 GRADIENT NORM       0.721447
 DIRECTION COSINE   -0.000000
 PM6-D3H4 CHARGE=0 PRECISE XYZ


  O    -0.00560466 +1  -0.12310612 +1   0.13754367 +1
  C     1.21219223 +1  -0.08829304 +1   0.08308554 +1
  C     1.93790331 +1   1.19837919 +1   0.10817600 +1
  C     3.28029769 +1   1.25231740 +1   0.15589818 +1
  C     4.08645955 +1   0.03740395 +1   0.17227342 +1
  C     3.51141417 +1  -1.17482121 +1   0.09055946 +1
  C     2.02983914 +1  -1.37663577 +1   0.00642196 +1
  H     1.30516592 +1   2.08543633 +1   0.09716755 +1
  H     3.81485851 +1   2.20463338 +1   0.18258465 +1
  H     5.16630884 +1   0.15695695 +1   0.25004468 +1
  C     1.67046767 +1  -2.17871512 +1  -1.26654193 +1
  H     1.73242830 +1  -2.00592919 +1   0.91300255 +1
  C     0.24299612 +1  -2.64979907 +1  -1.24240098 +1
  H     2.36272981 +1  -3.05337067 +1  -1.34183775 +1
  H     1.82400641 +1  -1.52677568 +1  -2.16203715 +1
  C    -0.11568959 +1  -3.92790433 +1  -1.13963623 +1
  H    -0.49868770 +1  -1.84508896 +1  -1.30553635 +1
  H     0.60283675 +1  -4.73973371 +1  -1.05165525 +1
  H    -1.16028492 +1  -4.23332999 +1  -1.12662726 +1
  O     1.06614575 +1  -3.52049481 +1   2.07588557 +1
  C    -0.15220053 +1  -3.55089231 +1   2.11913437 +1
  C    -0.88298683 +1  -4.83390403 +1   2.06476290 +1
  C    -2.22519724 +1  -4.88179258 +1   2.00815532 +1
  C    -3.02650009 +1  -3.66373635 +1   2.01539847 +1
  C    -2.44722506 +1  -2.45545335 +1   2.12310437 +1
  C    -0.96497791 +1  -2.26046555 +1   2.20909619 +1
  H    -0.25354874 +1  -5.72331242 +1   2.06141003 +1
  H    -2.76312042 +1  -5.83115747 +1   1.95659210 +1
  H    -4.10662902 +1  -3.77785106 +1   1.93394519 +1
  H    -3.03651849 +1  -1.53571766 +1   2.13792644 +1
  C    -0.59860749 +1  -1.47116319 +1   3.48785927 +1
  H    -0.66588436 +1  -1.62505149 +1   1.30644597 +1
  C     0.82949394 +1  -1.00193248 +1   3.46036438 +1
  H    -0.74827420 +1  -2.13169681 +1   4.37769740 +1
  H    -1.28882974 +1  -0.59629282 +1   3.57603218 +1
  C     1.19014379 +1   0.27525467 +1   3.35219759 +1
  H     1.57015837 +1  -1.80747854 +1   3.52501795 +1
  H     0.47269513 +1   1.08843634 +1   3.26401713 +1
  H     2.23532039 +1   0.57839385 +1   3.33539786 +1
  H     4.10370384 +1  -2.09272747 +1   0.09513039 +1
 
 TIME=     3.46
  REACTANTS AND PRODUCTS SWAPPED AROUND
 *+*+*+*+*+*+*+*+*+*+*+*+*+*+*+*+*+*+*+*+*+*+*+*+*+*+*+*+*+*+*+*+*+*+*+*+*+*+*+*+
            BAR SHORTENED BY       1.000 PERCENT
 GRADIENT CRITERION IN FLEPO =     0.200
           THERE HAVE BEEN 3 ATTEMPTS TO REDUCE THE GRADIENT.
           DURING THESE ATTEMPTS THE ENERGY DROPPED BY LESS THAN 0.0 KCAL/MOLE
           FURTHER CALCULATION IS NOT JUSTIFIED AT THIS TIME.


          FOR POINT    2 FIRST  STRUCTURE
 DISTANCE A - B      1.868915
 HEAT              -11.693382
 GRADIENT NORM      12.439735
 DIRECTION COSINE    0.296811
 PM6-D3H4 CHARGE=0 PRECISE XYZ


  O    -0.05651205 +1  -0.19940148 +1   0.20726726 +1
  C     1.31326820 +1  -0.11428289 +1   0.05863875 +1
  C     1.87929233 +1   1.15455676 +1   0.27167233 +1
  C     3.26751554 +1   1.27368226 +1   0.30748073 +1
  C     4.07410298 +1   0.13110079 +1   0.21495740 +1
  C     3.49944466 +1  -1.09941601 +1  -0.10039739 +1
  C     2.11433718 +1  -1.21100336 +1  -0.32199774 +1
  H     1.22750543 +1   2.01685589 +1   0.39093633 +1
  H     3.73000754 +1   2.25357985 +1   0.41817904 +1
  H     5.15117463 +1   0.20947543 +1   0.34592990 +1
  C     1.64884701 +1  -2.32032414 +1  -1.22059567 +1
  H     1.38087163 +1  -2.58707167 +1   1.53373940 +1
  C     0.20028485 +1  -2.69955566 +1  -1.18971988 +1
  H     2.29153937 +1  -3.22321609 +1  -1.07345059 +1
  H     1.84836863 +1  -1.92133056 +1  -2.26263039 +1
  C    -0.20753155 +1  -3.96298441 +1  -1.08951207 +1
  H    -0.50218801 +1  -1.87117531 +1  -1.32486735 +1
  H     0.48619479 +1  -4.79463512 +1  -0.97279312 +1
  H    -1.26026978 +1  -4.23614855 +1  -1.10539483 +1
  O     1.11995791 +1  -3.43692415 +1   2.00205429 +1
  C    -0.25107047 +1  -3.51769080 +1   2.14447226 +1
  C    -0.82244387 +1  -4.78016586 +1   1.90902835 +1
  C    -2.21118323 +1  -4.89270090 +1   1.86803863 +1
  C    -3.01336361 +1  -3.74912000 +1   1.98097982 +1
  C    -2.43420123 +1  -2.52628384 +1   2.31740161 +1
  C    -1.04846158 +1  -2.42302334 +1   2.53917567 +1
  H    -0.17395824 +1  -5.64313492 +1   1.77572056 +1
  H    -2.67724501 +1  -5.86822860 +1   1.73654833 +1
  H    -4.09060966 +1  -3.82120850 +1   1.84825400 +1
  H    -3.06399890 +1  -1.64448762 +1   2.43986263 +1
  C    -0.57614675 +1  -1.32497917 +1   3.44805993 +1
  H    -0.31408461 +1  -1.04857835 +1   0.67834034 +1
  C     0.87282484 +1  -0.94619324 +1   3.40818220 +1
  H    -0.76683052 +1  -1.73643814 +1   4.48680744 +1
  H    -1.21923710 +1  -0.41976481 +1   3.31696977 +1
  C     1.28258934 +1   0.31543510 +1   3.29306387 +1
  H     1.57441625 +1  -1.77455912 +1   3.54769221 +1
  H     0.59083228 +1   1.14787095 +1   3.17198925 +1
  H     2.33645470 +1   0.58542683 +1   3.30040572 +1
  H     4.13214119 +1  -1.98095318 +1  -0.20764057 +1
 
 *+*+*+*+*+*+*+*+*+*+*+*+*+*+*+*+*+*+*+*+*+*+*+*+*+*+*+*+*+*+*+*+*+*+*+*+*+*+*+*+
            BAR SHORTENED BY       1.000 PERCENT
 GRADIENT CRITERION IN FLEPO =     1.888


          FOR POINT    3 FIRST  STRUCTURE
 DISTANCE A - B      1.850226
 HEAT              -11.436007
 GRADIENT NORM      12.016435
 DIRECTION COSINE    0.900549
 PM6-D3H4 CHARGE=0 PRECISE XYZ


  O    -0.05751656 +1  -0.20247466 +1   0.20972499 +1
  C     1.31272242 +1  -0.11466589 +1   0.05950389 +1
  C     1.87955979 +1   1.15464480 +1   0.26900222 +1
  C     3.26810382 +1   1.27291668 +1   0.30449708 +1
  C     4.07430683 +1   0.13038433 +1   0.21468387 +1
  C     3.49912997 +1  -1.10057067 +1  -0.09564008 +1
  C     2.11486198 +1  -1.21211878 +1  -0.31806639 +1
  H     1.22949356 +1   2.01818879 +1   0.38470331 +1
  H     3.73163089 +1   2.25272295 +1   0.41203283 +1
  H     5.15191666 +1   0.20741292 +1   0.34305509 +1
  C     1.64913020 +1  -2.31876520 +1  -1.22064576 +1
  H     1.37256131 +1  -2.58675398 +1   1.52792946 +1
  C     0.20046793 +1  -2.69931303 +1  -1.19161878 +1
  H     2.29228312 +1  -3.22175999 +1  -1.07930858 +1
  H     1.84383777 +1  -1.91540424 +1  -2.26194844 +1
  C    -0.20642135 +1  -3.96410636 +1  -1.09679871 +1
  H    -0.50465767 +1  -1.87178208 +1  -1.32555415 +1
  H     0.48808345 +1  -4.79490320 +1  -0.97697399 +1
  H    -1.25903342 +1  -4.23765918 +1  -1.12939046 +1
  O     1.12061797 +1  -3.43428932 +1   1.99929616 +1
  C    -0.25111852 +1  -3.51772838 +1   2.14208651 +1
  C    -0.82291900 +1  -4.78083675 +1   1.91169747 +1
  C    -2.21195756 +1  -4.89313830 +1   1.87052070 +1
  C    -3.01375592 +1  -3.74894827 +1   1.98027942 +1
  C    -2.43401425 +1  -2.52535255 +1   2.31087715 +1
  C    -1.04900873 +1  -2.42237022 +1   2.53469059 +1
  H    -0.17577108 +1  -5.64687253 +1   1.78079680 +1
  H    -2.67957252 +1  -5.86890626 +1   1.74193948 +1
  H    -4.09246032 +1  -3.82188323 +1   1.84911408 +1
  H    -3.06411876 +1  -1.64326623 +1   2.43337969 +1
  C    -0.57664371 +1  -1.32722622 +1   3.44735420 +1
  H    -0.30883227 +1  -1.04946621 +1   0.68324626 +1
  C     0.87187226 +1  -0.94760938 +1   3.40875019 +1
  H    -0.76655042 +1  -1.74543925 +1   4.48486498 +1
  H    -1.22474474 +1  -0.42357127 +1   3.32138516 +1
  C     1.28044285 +1   0.31462957 +1   3.29645963 +1
  H     1.57442770 +1  -1.77571502 +1   3.54544563 +1
  H     0.58402712 +1   1.14345491 +1   3.17497060 +1
  H     2.33336169 +1   0.58556930 +1   3.30635678 +1
  H     4.13124388 +1  -1.98413136 +1  -0.20230267 +1
 
 *+*+*+*+*+*+*+*+*+*+*+*+*+*+*+*+*+*+*+*+*+*+*+*+*+*+*+*+*+*+*+*+*+*+*+*+*+*+*+*+
            BAR SHORTENED BY       1.000 PERCENT
 GRADIENT CRITERION IN FLEPO =     1.803


          FOR POINT    4 FIRST  STRUCTURE
 DISTANCE A - B      1.831724
 HEAT              -11.212545
 GRADIENT NORM      12.801876
 DIRECTION COSINE    0.869465
 PM6-D3H4 CHARGE=0 PRECISE XYZ


  O    -0.05783671 +1  -0.20427539 +1   0.21172591 +1
  C     1.31215202 +1  -0.11499678 +1   0.06113184 +1
  C     1.87945869 +1   1.15426717 +1   0.26648645 +1
  C     3.26845379 +1   1.27253616 +1   0.30133524 +1
  C     4.07468919 +1   0.12963911 +1   0.21460176 +1
  C     3.49842231 +1  -1.10213756 +1  -0.09427039 +1
  C     2.11364946 +1  -1.21312908 +1  -0.31635924 +1
  H     1.22952294 +1   2.01913001 +1   0.37869479 +1
  H     3.73217842 +1   2.25242840 +1   0.40630606 +1
  H     5.15203720 +1   0.20767896 +1   0.34158004 +1
  C     1.64826673 +1  -2.31722326 +1  -1.22072411 +1
  H     1.37829417 +1  -2.58908519 +1   1.52067449 +1
  C     0.20046977 +1  -2.69907444 +1  -1.19146016 +1
  H     2.29332365 +1  -3.22021258 +1  -1.08419441 +1
  H     1.84453116 +1  -1.90951081 +1  -2.26090252 +1
  C    -0.20519307 +1  -3.96359752 +1  -1.09999151 +1
  H    -0.50367956 +1  -1.87200811 +1  -1.32548716 +1
  H     0.48902871 +1  -4.79417408 +1  -0.97961902 +1
  H    -1.25668053 +1  -4.23959572 +1  -1.12299029 +1
  O     1.12030946 +1  -3.43322722 +1   1.99775542 +1
  C    -0.25083430 +1  -3.51804051 +1   2.14177573 +1
  C    -0.82307666 +1  -4.78155886 +1   1.91285559 +1
  C    -2.21241946 +1  -4.89289596 +1   1.87263300 +1
  C    -3.01437499 +1  -3.74852473 +1   1.97986995 +1
  C    -2.43373674 +1  -2.52417893 +1   2.30929067 +1
  C    -1.04819712 +1  -2.42166565 +1   2.53094214 +1
  H    -0.17720780 +1  -5.64688682 +1   1.78515801 +1
  H    -2.67986826 +1  -5.86850581 +1   1.74754808 +1
  H    -4.09196572 +1  -3.82060322 +1   1.85033888 +1
  H    -3.06330357 +1  -1.64148431 +1   2.42804213 +1
  C    -0.57759928 +1  -1.32962541 +1   3.44765158 +1
  H    -0.31165912 +1  -1.05021914 +1   0.68844889 +1
  C     0.87070489 +1  -0.94819913 +1   3.40860140 +1
  H    -0.76520809 +1  -1.75242461 +1   4.48233492 +1
  H    -1.22354776 +1  -0.42604394 +1   3.32607310 +1
  C     1.27859087 +1   0.31355510 +1   3.29842296 +1
  H     1.57519555 +1  -1.77672156 +1   3.54517519 +1
  H     0.58425933 +1   1.14576860 +1   3.18264031 +1
  H     2.33178413 +1   0.58687205 +1   3.30705514 +1
  H     4.13053449 +1  -1.98450324 +1  -0.19731617 +1
 
 TIME=     3.59
  REACTANTS AND PRODUCTS SWAPPED AROUND
 *+*+*+*+*+*+*+*+*+*+*+*+*+*+*+*+*+*+*+*+*+*+*+*+*+*+*+*+*+*+*+*+*+*+*+*+*+*+*+*+
            BAR SHORTENED BY       0.000 PERCENT
 GRADIENT CRITERION IN FLEPO =     1.960


          FOR POINT    5 SECOND STRUCTURE
 DISTANCE A - B      1.831724
 HEAT               -4.418060
 GRADIENT NORM       0.721438
 DIRECTION COSINE    0.246996
 PM6-D3H4 CHARGE=0 PRECISE XYZ


  O    -0.00560466 +1  -0.12310612 +1   0.13754367 +1
  C     1.21219223 +1  -0.08829304 +1   0.08308554 +1
  C     1.93790331 +1   1.19837919 +1   0.10817600 +1
  C     3.28029769 +1   1.25231740 +1   0.15589818 +1
  C     4.08645955 +1   0.03740395 +1   0.17227342 +1
  C     3.51141417 +1  -1.17482121 +1   0.09055946 +1
  C     2.02983914 +1  -1.37663577 +1   0.00642196 +1
  H     1.30516592 +1   2.08543633 +1   0.09716755 +1
  H     3.81485851 +1   2.20463338 +1   0.18258465 +1
  H     5.16630884 +1   0.15695695 +1   0.25004468 +1
  C     1.67046767 +1  -2.17871512 +1  -1.26654193 +1
  H     1.73242830 +1  -2.00592919 +1   0.91300255 +1
  C     0.24299612 +1  -2.64979907 +1  -1.24240098 +1
  H     2.36272981 +1  -3.05337067 +1  -1.34183775 +1
  H     1.82400641 +1  -1.52677568 +1  -2.16203715 +1
  C    -0.11568959 +1  -3.92790433 +1  -1.13963623 +1
  H    -0.49868770 +1  -1.84508896 +1  -1.30553635 +1
  H     0.60283675 +1  -4.73973371 +1  -1.05165525 +1
  H    -1.16028492 +1  -4.23332999 +1  -1.12662726 +1
  O     1.06614575 +1  -3.52049481 +1   2.07588557 +1
  C    -0.15220053 +1  -3.55089231 +1   2.11913437 +1
  C    -0.88298683 +1  -4.83390403 +1   2.06476290 +1
  C    -2.22519724 +1  -4.88179258 +1   2.00815532 +1
  C    -3.02650009 +1  -3.66373635 +1   2.01539847 +1
  C    -2.44722506 +1  -2.45545335 +1   2.12310437 +1
  C    -0.96497791 +1  -2.26046555 +1   2.20909619 +1
  H    -0.25354874 +1  -5.72331242 +1   2.06141003 +1
  H    -2.76312042 +1  -5.83115747 +1   1.95659210 +1
  H    -4.10662902 +1  -3.77785106 +1   1.93394519 +1
  H    -3.03651849 +1  -1.53571766 +1   2.13792644 +1
  C    -0.59860749 +1  -1.47116319 +1   3.48785927 +1
  H    -0.66588436 +1  -1.62505149 +1   1.30644597 +1
  C     0.82949394 +1  -1.00193248 +1   3.46036438 +1
  H    -0.74827420 +1  -2.13169681 +1   4.37769740 +1
  H    -1.28882974 +1  -0.59629282 +1   3.57603218 +1
  C     1.19014379 +1   0.27525467 +1   3.35219759 +1
  H     1.57015837 +1  -1.80747854 +1   3.52501795 +1
  H     0.47269513 +1   1.08843634 +1   3.26401713 +1
  H     2.23532039 +1   0.57839385 +1   3.33539786 +1
  H     4.10370384 +1  -2.09272747 +1   0.09513039 +1
 
 TIME=     0.09
  REACTANTS AND PRODUCTS SWAPPED AROUND
 *+*+*+*+*+*+*+*+*+*+*+*+*+*+*+*+*+*+*+*+*+*+*+*+*+*+*+*+*+*+*+*+*+*+*+*+*+*+*+*+
            BAR SHORTENED BY       1.000 PERCENT
 GRADIENT CRITERION IN FLEPO =     1.960


          FOR POINT    6 FIRST  STRUCTURE
 DISTANCE A - B      1.813407
 HEAT              -10.969772
 GRADIENT NORM      14.043411
 DIRECTION COSINE    0.303638
 PM6-D3H4 CHARGE=0 PRECISE XYZ


  O    -0.05811046 +1  -0.20566078 +1   0.21304766 +1
  C     1.31147253 +1  -0.11540957 +1   0.06186770 +1
  C     1.87972823 +1   1.15464579 +1   0.26437324 +1
  C     3.26862821 +1   1.27218062 +1   0.29811756 +1
  C     4.07462633 +1   0.12882303 +1   0.21393839 +1
  C     3.49820632 +1  -1.10391098 +1  -0.09065189 +1
  C     2.11350890 +1  -1.21431606 +1  -0.31302580 +1
  H     1.23085024 +1   2.01987693 +1   0.37369795 +1
  H     3.73306931 +1   2.25202873 +1   0.39716137 +1
  H     5.15230541 +1   0.20693370 +1   0.34044143 +1
  C     1.64856223 +1  -2.31598788 +1  -1.22124854 +1
  H     1.37994438 +1  -2.58841116 +1   1.51529674 +1
  C     0.20059367 +1  -2.69855708 +1  -1.19306623 +1
  H     2.29400948 +1  -3.21854489 +1  -1.08864680 +1
  H     1.84328755 +1  -1.90346587 +1  -2.25979364 +1
  C    -0.20420992 +1  -3.96365239 +1  -1.09982874 +1
  H    -0.50588033 +1  -1.87128448 +1  -1.32500248 +1
  H     0.49116169 +1  -4.79492625 +1  -0.98338594 +1
  H    -1.25596700 +1  -4.24015995 +1  -1.12303801 +1
  O     1.12057297 +1  -3.43230885 +1   1.99614102 +1
  C    -0.25031942 +1  -3.51816596 +1   2.13865236 +1
  C    -0.82359166 +1  -4.78150689 +1   1.91471088 +1
  C    -2.21273416 +1  -4.89267465 +1   1.87462860 +1
  C    -3.01435945 +1  -3.74790729 +1   1.97861427 +1
  C    -2.43365637 +1  -2.52334452 +1   2.30529183 +1
  C    -1.04896168 +1  -2.42063530 +1   2.52772792 +1
  H    -0.17872015 +1  -5.64826671 +1   1.78958917 +1
  H    -2.68106277 +1  -5.86852513 +1   1.75299712 +1
  H    -4.09231885 +1  -3.82053672 +1   1.85057065 +1
  H    -3.06248757 +1  -1.63995557 +1   2.42316293 +1
  C    -0.57730012 +1  -1.33131922 +1   3.44765374 +1
  H    -0.31386482 +1  -1.05164338 +1   0.69386504 +1
  C     0.87044794 +1  -0.94923907 +1   3.40942447 +1
  H    -0.76501497 +1  -1.75743306 +1   4.48144057 +1
  H    -1.22441574 +1  -0.42762425 +1   3.33054344 +1
  C     1.27757049 +1   0.31372971 +1   3.29950415 +1
  H     1.57465957 +1  -1.77668226 +1   3.54403154 +1
  H     0.58322818 +1   1.14488124 +1   3.18384586 +1
  H     2.33015352 +1   0.58656496 +1   3.31355718 +1
  H     4.13034687 +1  -1.98614993 +1  -0.19247340 +1
 
 *+*+*+*+*+*+*+*+*+*+*+*+*+*+*+*+*+*+*+*+*+*+*+*+*+*+*+*+*+*+*+*+*+*+*+*+*+*+*+*+
            BAR SHORTENED BY       1.000 PERCENT
 GRADIENT CRITERION IN FLEPO =     2.000


          FOR POINT    7 FIRST  STRUCTURE
 DISTANCE A - B      1.795273
 HEAT              -10.711332
 GRADIENT NORM      16.143690
 DIRECTION COSINE    0.940706
 PM6-D3H4 CHARGE=0 PRECISE XYZ


  O    -0.05824031 +1  -0.20613677 +1   0.21386450 +1
  C     1.31061771 +1  -0.11552120 +1   0.06360262 +1
  C     1.88006901 +1   1.15475326 +1   0.26215238 +1
  C     3.26884753 +1   1.27171784 +1   0.29544340 +1
  C     4.07447672 +1   0.12756996 +1   0.21388115 +1
  C     3.49868673 +1  -1.10539716 +1  -0.08743330 +1
  C     2.11248339 +1  -1.21582765 +1  -0.30948028 +1
  H     1.23150690 +1   2.02077935 +1   0.36810604 +1
  H     3.73410527 +1   2.25164082 +1   0.38891459 +1
  H     5.15227609 +1   0.20602403 +1   0.33879846 +1
  C     1.64833281 +1  -2.31438157 +1  -1.22185091 +1
  H     1.37100566 +1  -2.58467664 +1   1.50906331 +1
  C     0.20073723 +1  -2.69824978 +1  -1.19436207 +1
  H     2.29483440 +1  -3.21681622 +1  -1.09389253 +1
  H     1.84222667 +1  -1.89608994 +1  -2.25861027 +1
  C    -0.20308134 +1  -3.96421036 +1  -1.10141525 +1
  H    -0.50536615 +1  -1.87169052 +1  -1.32456036 +1
  H     0.49235356 +1  -4.79415710 +1  -0.98562809 +1
  H    -1.25474721 +1  -4.24026325 +1  -1.12245835 +1
  O     1.12055254 +1  -3.43213831 +1   1.99525308 +1
  C    -0.24972253 +1  -3.51822677 +1   2.13780547 +1
  C    -0.82401013 +1  -4.78209462 +1   1.91623326 +1
  C    -2.21322211 +1  -4.89249313 +1   1.87650116 +1
  C    -3.01468046 +1  -3.74722847 +1   1.97864154 +1
  C    -2.43368393 +1  -2.52229284 +1   2.30173372 +1
  C    -1.04791428 +1  -2.41958792 +1   2.52385478 +1
  H    -0.17974127 +1  -5.65001457 +1   1.79338183 +1
  H    -2.68223850 +1  -5.86835567 +1   1.75893936 +1
  H    -4.09304099 +1  -3.82026295 +1   1.85124303 +1
  H    -3.06230139 +1  -1.63870202 +1   2.41799678 +1
  C    -0.57758628 +1  -1.33312988 +1   3.44749677 +1
  H    -0.30926491 +1  -1.05502105 +1   0.69967708 +1
  C     0.87004071 +1  -0.94978764 +1   3.40974399 +1
  H    -0.76388276 +1  -1.76360314 +1   4.47969305 +1
  H    -1.22667642 +1  -0.43009622 +1   3.33418799 +1
  C     1.27632170 +1   0.31332767 +1   3.30080349 +1
  H     1.57386401 +1  -1.77745700 +1   3.54340966 +1
  H     0.57835919 +1   1.14337946 +1   3.18516726 +1
  H     2.32791469 +1   0.58779941 +1   3.31225711 +1
  H     4.12967868 +1  -1.98954601 +1  -0.18789400 +1
 
 *+*+*+*+*+*+*+*+*+*+*+*+*+*+*+*+*+*+*+*+*+*+*+*+*+*+*+*+*+*+*+*+*+*+*+*+*+*+*+*+
            BAR SHORTENED BY       1.000 PERCENT
 GRADIENT CRITERION IN FLEPO =     2.000


          FOR POINT    8 FIRST  STRUCTURE
 DISTANCE A - B      1.777320
 HEAT              -10.458122
 GRADIENT NORM      14.730303
 DIRECTION COSINE    0.881503
 PM6-D3H4 CHARGE=0 PRECISE XYZ


  O    -0.05915220 +1  -0.20930256 +1   0.21691624 +1
  C     1.31074106 +1  -0.11614944 +1   0.06422369 +1
  C     1.88002296 +1   1.15388255 +1   0.25957574 +1
  C     3.26913530 +1   1.27105689 +1   0.29145103 +1
  C     4.07481494 +1   0.12692636 +1   0.21389226 +1
  C     3.49766705 +1  -1.10672019 +1  -0.08472617 +1
  C     2.11321132 +1  -1.21642655 +1  -0.30652870 +1
  H     1.23243197 +1   2.02194855 +1   0.36229390 +1
  H     3.73509645 +1   2.25147800 +1   0.38093408 +1
  H     5.15148581 +1   0.20397618 +1   0.33663401 +1
  C     1.64800812 +1  -2.31225725 +1  -1.22247970 +1
  H     1.37591009 +1  -2.58824871 +1   1.50478881 +1
  C     0.20080841 +1  -2.69823425 +1  -1.19547193 +1
  H     2.29572242 +1  -3.21478046 +1  -1.10052068 +1
  H     1.83888205 +1  -1.88588568 +1  -2.25737604 +1
  C    -0.20208811 +1  -3.96375097 +1  -1.10278598 +1
  H    -0.50514459 +1  -1.87165133 +1  -1.32435521 +1
  H     0.49799521 +1  -4.79351752 +1  -0.99337935 +1
  H    -1.25200790 +1  -4.24698467 +1  -1.12249365 +1
  O     1.12113991 +1  -3.42938739 +1   1.99169013 +1
  C    -0.25029548 +1  -3.51824087 +1   2.13657216 +1
  C    -0.82412630 +1  -4.78250847 +1   1.91791221 +1
  C    -2.21403514 +1  -4.89228748 +1   1.87932063 +1
  C    -3.01528313 +1  -3.74703780 +1   1.97791996 +1
  C    -2.43340804 +1  -2.52099594 +1   2.29702558 +1
  C    -1.04937694 +1  -2.41968002 +1   2.52060978 +1
  H    -0.18114965 +1  -5.65181663 +1   1.79840423 +1
  H    -2.68356679 +1  -5.86852944 +1   1.76522981 +1
  H    -4.09319798 +1  -3.81985224 +1   1.85197994 +1
  H    -3.06212972 +1  -1.63730719 +1   2.41160764 +1
  C    -0.57793399 +1  -1.33523233 +1   3.44641916 +1
  H    -0.31144239 +1  -1.05429840 +1   0.70267642 +1
  C     0.86961918 +1  -0.95028532 +1   3.41001987 +1
  H    -0.76298190 +1  -1.77180375 +1   4.47778001 +1
  H    -1.22765271 +1  -0.43298401 +1   3.33844448 +1
  C     1.27423778 +1   0.31322403 +1   3.30431694 +1
  H     1.57397068 +1  -1.77801889 +1   3.54250346 +1
  H     0.57793274 +1   1.14237842 +1   3.18738005 +1
  H     2.32720166 +1   0.58824933 +1   3.31233810 +1
  H     4.12638200 +1  -1.99166803 +1  -0.18245338 +1
 
 TIME=     0.76
  REACTANTS AND PRODUCTS SWAPPED AROUND
 *+*+*+*+*+*+*+*+*+*+*+*+*+*+*+*+*+*+*+*+*+*+*+*+*+*+*+*+*+*+*+*+*+*+*+*+*+*+*+*+
            BAR SHORTENED BY       0.000 PERCENT
 GRADIENT CRITERION IN FLEPO =     2.000


          FOR POINT    9 SECOND STRUCTURE
 DISTANCE A - B      1.777320
 HEAT               -4.418060
 GRADIENT NORM       0.721438
 DIRECTION COSINE    0.301880
 PM6-D3H4 CHARGE=0 PRECISE XYZ


  O    -0.00560466 +1  -0.12310612 +1   0.13754367 +1
  C     1.21219223 +1  -0.08829304 +1   0.08308554 +1
  C     1.93790331 +1   1.19837919 +1   0.10817600 +1
  C     3.28029769 +1   1.25231740 +1   0.15589818 +1
  C     4.08645955 +1   0.03740395 +1   0.17227342 +1
  C     3.51141417 +1  -1.17482121 +1   0.09055946 +1
  C     2.02983914 +1  -1.37663577 +1   0.00642196 +1
  H     1.30516592 +1   2.08543633 +1   0.09716755 +1
  H     3.81485851 +1   2.20463338 +1   0.18258465 +1
  H     5.16630884 +1   0.15695695 +1   0.25004468 +1
  C     1.67046767 +1  -2.17871512 +1  -1.26654193 +1
  H     1.73242830 +1  -2.00592919 +1   0.91300255 +1
  C     0.24299612 +1  -2.64979907 +1  -1.24240098 +1
  H     2.36272981 +1  -3.05337067 +1  -1.34183775 +1
  H     1.82400641 +1  -1.52677568 +1  -2.16203715 +1
  C    -0.11568959 +1  -3.92790433 +1  -1.13963623 +1
  H    -0.49868770 +1  -1.84508896 +1  -1.30553635 +1
  H     0.60283675 +1  -4.73973371 +1  -1.05165525 +1
  H    -1.16028492 +1  -4.23332999 +1  -1.12662726 +1
  O     1.06614575 +1  -3.52049481 +1   2.07588557 +1
  C    -0.15220053 +1  -3.55089231 +1   2.11913437 +1
  C    -0.88298683 +1  -4.83390403 +1   2.06476290 +1
  C    -2.22519724 +1  -4.88179258 +1   2.00815532 +1
  C    -3.02650009 +1  -3.66373635 +1   2.01539847 +1
  C    -2.44722506 +1  -2.45545335 +1   2.12310437 +1
  C    -0.96497791 +1  -2.26046555 +1   2.20909619 +1
  H    -0.25354874 +1  -5.72331242 +1   2.06141003 +1
  H    -2.76312042 +1  -5.83115747 +1   1.95659210 +1
  H    -4.10662902 +1  -3.77785106 +1   1.93394519 +1
  H    -3.03651849 +1  -1.53571766 +1   2.13792644 +1
  C    -0.59860749 +1  -1.47116319 +1   3.48785927 +1
  H    -0.66588436 +1  -1.62505149 +1   1.30644597 +1
  C     0.82949394 +1  -1.00193248 +1   3.46036438 +1
  H    -0.74827420 +1  -2.13169681 +1   4.37769740 +1
  H    -1.28882974 +1  -0.59629282 +1   3.57603218 +1
  C     1.19014379 +1   0.27525467 +1   3.35219759 +1
  H     1.57015837 +1  -1.80747854 +1   3.52501795 +1
  H     0.47269513 +1   1.08843634 +1   3.26401713 +1
  H     2.23532039 +1   0.57839385 +1   3.33539786 +1
  H     4.10370384 +1  -2.09272747 +1   0.09513039 +1
 
 TIME=     0.09
  REACTANTS AND PRODUCTS SWAPPED AROUND
 *+*+*+*+*+*+*+*+*+*+*+*+*+*+*+*+*+*+*+*+*+*+*+*+*+*+*+*+*+*+*+*+*+*+*+*+*+*+*+*+
            BAR SHORTENED BY       1.000 PERCENT
 GRADIENT CRITERION IN FLEPO =     2.000


          FOR POINT   10 FIRST  STRUCTURE
 DISTANCE A - B      1.759547
 HEAT              -10.195327
 GRADIENT NORM      17.592975
 DIRECTION COSINE    0.325506
 PM6-D3H4 CHARGE=0 PRECISE XYZ


  O    -0.05888071 +1  -0.20933366 +1   0.21732788 +1
  C     1.30981677 +1  -0.11620955 +1   0.06648374 +1
  C     1.88039884 +1   1.15435709 +1   0.25695954 +1
  C     3.26934496 +1   1.27047812 +1   0.28505099 +1
  C     4.07471972 +1   0.12527823 +1   0.21332512 +1
  C     3.49703372 +1  -1.10900256 +1  -0.08257063 +1
  C     2.11210327 +1  -1.21785505 +1  -0.30376754 +1
  H     1.23322009 +1   2.02253245 +1   0.35875329 +1
  H     3.73580422 +1   2.25094536 +1   0.37789258 +1
  H     5.15195779 +1   0.20360556 +1   0.33586721 +1
  C     1.64880664 +1  -2.31063755 +1  -1.22328491 +1
  H     1.37588986 +1  -2.58369500 +1   1.49885772 +1
  C     0.20096477 +1  -2.69785165 +1  -1.19569851 +1
  H     2.29650308 +1  -3.21229498 +1  -1.10469839 +1
  H     1.83649671 +1  -1.88033286 +1  -2.25612098 +1
  C    -0.20072295 +1  -3.96524128 +1  -1.10377799 +1
  H    -0.50537918 +1  -1.87145170 +1  -1.32395450 +1
  H     0.49887590 +1  -4.79271575 +1  -0.99441373 +1
  H    -1.25096427 +1  -4.24625118 +1  -1.12228631 +1
  O     1.12074553 +1  -3.42966714 +1   1.99142034 +1
  C    -0.24947042 +1  -3.51833325 +1   2.13369876 +1
  C    -0.82463382 +1  -4.78296721 +1   1.91953215 +1
  C    -2.21428869 +1  -4.89216344 +1   1.88161538 +1
  C    -3.01561821 +1  -3.74636066 +1   1.97771417 +1
  C    -2.43361425 +1  -2.52002097 +1   2.29435504 +1
  C    -1.04837270 +1  -2.41831056 +1   2.51733304 +1
  H    -0.18237352 +1  -5.65259987 +1   1.80299971 +1
  H    -2.68451130 +1  -5.86833425 +1   1.78093719 +1
  H    -4.09415395 +1  -3.81953859 +1   1.84858411 +1
  H    -3.06188179 +1  -1.63550745 +1   2.40739301 +1
  C    -0.57812000 +1  -1.33699937 +1   3.44704486 +1
  H    -0.31347554 +1  -1.05754649 +1   0.70107263 +1
  C     0.86911559 +1  -0.95093259 +1   3.41055138 +1
  H    -0.76235600 +1  -1.77854973 +1   4.47640274 +1
  H    -1.22836166 +1  -0.43464671 +1   3.34300247 +1
  C     1.27339880 +1   0.31292377 +1   3.30466147 +1
  H     1.57395082 +1  -1.77833764 +1   3.54152302 +1
  H     0.57663657 +1   1.14193054 +1   3.18920000 +1
  H     2.32596461 +1   0.58816918 +1   3.31324381 +1
  H     4.12650581 +1  -1.99318224 +1  -0.17757764 +1
 
 *+*+*+*+*+*+*+*+*+*+*+*+*+*+*+*+*+*+*+*+*+*+*+*+*+*+*+*+*+*+*+*+*+*+*+*+*+*+*+*+
            BAR SHORTENED BY       1.000 PERCENT
 GRADIENT CRITERION IN FLEPO =     2.000


          FOR POINT   11 FIRST  STRUCTURE
 DISTANCE A - B      1.741951
 HEAT               -9.932117
 GRADIENT NORM      16.999435
 DIRECTION COSINE    0.941551
 PM6-D3H4 CHARGE=0 PRECISE XYZ


  O    -0.05932293 +1  -0.21072846 +1   0.21941971 +1
  C     1.30909860 +1  -0.11664413 +1   0.06700052 +1
  C     1.88044802 +1   1.15459104 +1   0.25449033 +1
  C     3.26980234 +1   1.26993053 +1   0.28369433 +1
  C     4.07453368 +1   0.12438005 +1   0.21191445 +1
  C     3.49600771 +1  -1.10984045 +1  -0.07836644 +1
  C     2.11112624 +1  -1.21926852 +1  -0.29998375 +1
  H     1.23491302 +1   2.02350116 +1   0.35214972 +1
  H     3.73692879 +1   2.24898728 +1   0.37312733 +1
  H     5.15247645 +1   0.20287867 +1   0.33477568 +1
  C     1.64665477 +1  -2.30884903 +1  -1.22397576 +1
  H     1.36831708 +1  -2.58183586 +1   1.49637072 +1
  C     0.20131935 +1  -2.69775649 +1  -1.19617261 +1
  H     2.29760194 +1  -3.21057541 +1  -1.11237325 +1
  H     1.83496539 +1  -1.87264192 +1  -2.25494042 +1
  C    -0.19885987 +1  -3.96454512 +1  -1.10511839 +1
  H    -0.50613469 +1  -1.87194582 +1  -1.32385187 +1
  H     0.50038551 +1  -4.79234419 +1  -0.99588651 +1
  H    -1.24985288 +1  -4.24586301 +1  -1.12266689 +1
  O     1.12106131 +1  -3.42840865 +1   1.98896309 +1
  C    -0.24898031 +1  -3.51817721 +1   2.13222457 +1
  C    -0.82516557 +1  -4.78332499 +1   1.92119627 +1
  C    -2.21481869 +1  -4.89187446 +1   1.88512576 +1
  C    -3.01592617 +1  -3.74569907 +1   1.97706624 +1
  C    -2.43338775 +1  -2.51872218 +1   2.29009256 +1
  C    -1.04742544 +1  -2.41723645 +1   2.51333045 +1
  H    -0.18452457 +1  -5.65411219 +1   1.80858419 +1
  H    -2.68604188 +1  -5.86866815 +1   1.78053636 +1
  H    -4.09419283 +1  -3.81935407 +1   1.85011082 +1
  H    -3.06159829 +1  -1.63412182 +1   2.40102089 +1
  C    -0.57830702 +1  -1.34060702 +1   3.44763912 +1
  H    -0.31659869 +1  -1.05449432 +1   0.70804015 +1
  C     0.86843694 +1  -0.95168157 +1   3.41083531 +1
  H    -0.76109737 +1  -1.79024847 +1   4.47458481 +1
  H    -1.22966250 +1  -0.43759655 +1   3.34862350 +1
  C     1.27134570 +1   0.31253088 +1   3.30516445 +1
  H     1.57376069 +1  -1.77938002 +1   3.54059951 +1
  H     0.57403469 +1   1.14122471 +1   3.19084205 +1
  H     2.32343786 +1   0.58789250 +1   3.31391451 +1
  H     4.12649701 +1  -1.99541004 +1  -0.17171616 +1
 
 *+*+*+*+*+*+*+*+*+*+*+*+*+*+*+*+*+*+*+*+*+*+*+*+*+*+*+*+*+*+*+*+*+*+*+*+*+*+*+*+
            BAR SHORTENED BY       1.000 PERCENT
 GRADIENT CRITERION IN FLEPO =     2.000


          FOR POINT   12 FIRST  STRUCTURE
 DISTANCE A - B      1.724532
 HEAT               -9.683786
 GRADIENT NORM      15.511966
 DIRECTION COSINE    0.907970
 PM6-D3H4 CHARGE=0 PRECISE XYZ


  O    -0.06001413 +1  -0.21138194 +1   0.22233132 +1
  C     1.30915472 +1  -0.11741520 +1   0.06924403 +1
  C     1.87971697 +1   1.15382535 +1   0.25210724 +1
  C     3.26998829 +1   1.26911066 +1   0.28050115 +1
  C     4.07421864 +1   0.12390336 +1   0.21298130 +1
  C     3.49539767 +1  -1.11184718 +1  -0.07457616 +1
  C     2.11036047 +1  -1.21974273 +1  -0.29808658 +1
  H     1.23430123 +1   2.02426551 +1   0.34638180 +1
  H     3.73763878 +1   2.24965461 +1   0.36131567 +1
  H     5.15267805 +1   0.19851555 +1   0.33394975 +1
  C     1.64696489 +1  -2.30623084 +1  -1.22539677 +1
  H     1.37445770 +1  -2.58605153 +1   1.49373813 +1
  C     0.20125896 +1  -2.69785171 +1  -1.19675575 +1
  H     2.30041052 +1  -3.20685386 +1  -1.11826791 +1
  H     1.83378138 +1  -1.86383470 +1  -2.25326654 +1
  C    -0.19671630 +1  -3.96488687 +1  -1.10544371 +1
  H    -0.50667396 +1  -1.87206389 +1  -1.32018097 +1
  H     0.50328245 +1  -4.79283617 +1  -0.99794329 +1
  H    -1.24809888 +1  -4.24523522 +1  -1.12031640 +1
  O     1.12105119 +1  -3.42661231 +1   1.98485693 +1
  C    -0.24981093 +1  -3.51783646 +1   2.12862194 +1
  C    -0.82506629 +1  -4.78300781 +1   1.92339187 +1
  C    -2.21583164 +1  -4.89240186 +1   1.88925603 +1
  C    -3.01598843 +1  -3.74577482 +1   1.97537858 +1
  C    -2.43281170 +1  -2.51739837 +1   2.28665509 +1
  C    -1.04839672 +1  -2.41798448 +1   2.51052863 +1
  H    -0.18375737 +1  -5.65505910 +1   1.81393347 +1
  H    -2.68625985 +1  -5.86920354 +1   1.78492266 +1
  H    -4.09447236 +1  -3.81801557 +1   1.85054539 +1
  H    -3.05855074 +1  -1.63073405 +1   2.39402827 +1
  C    -0.57802990 +1  -1.34316824 +1   3.44911913 +1
  H    -0.31440684 +1  -1.05546751 +1   0.71196845 +1
  C     0.86726522 +1  -0.95280982 +1   3.41083048 +1
  H    -0.75835333 +1  -1.79684945 +1   4.47196967 +1
  H    -1.23078409 +1  -0.44209285 +1   3.35634289 +1
  C     1.26814499 +1   0.31249702 +1   3.30644927 +1
  H     1.57497940 +1  -1.77859781 +1   3.53813386 +1
  H     0.56934306 +1   1.14081392 +1   3.19345800 +1
  H     2.32054209 +1   0.59126346 +1   3.31543706 +1
  H     4.12376721 +1  -1.99783345 +1  -0.16535946 +1
 
 TIME=     1.12
  REACTANTS AND PRODUCTS SWAPPED AROUND
 *+*+*+*+*+*+*+*+*+*+*+*+*+*+*+*+*+*+*+*+*+*+*+*+*+*+*+*+*+*+*+*+*+*+*+*+*+*+*+*+
            BAR SHORTENED BY       0.000 PERCENT
 GRADIENT CRITERION IN FLEPO =     2.000


          FOR POINT   13 SECOND STRUCTURE
 DISTANCE A - B      1.724532
 HEAT               -4.418060
 GRADIENT NORM       0.721438
 DIRECTION COSINE    0.268719
 PM6-D3H4 CHARGE=0 PRECISE XYZ


  O    -0.00560466 +1  -0.12310612 +1   0.13754367 +1
  C     1.21219223 +1  -0.08829304 +1   0.08308554 +1
  C     1.93790331 +1   1.19837919 +1   0.10817600 +1
  C     3.28029769 +1   1.25231740 +1   0.15589818 +1
  C     4.08645955 +1   0.03740395 +1   0.17227342 +1
  C     3.51141417 +1  -1.17482121 +1   0.09055946 +1
  C     2.02983914 +1  -1.37663577 +1   0.00642196 +1
  H     1.30516592 +1   2.08543633 +1   0.09716755 +1
  H     3.81485851 +1   2.20463338 +1   0.18258465 +1
  H     5.16630884 +1   0.15695695 +1   0.25004468 +1
  C     1.67046767 +1  -2.17871512 +1  -1.26654193 +1
  H     1.73242830 +1  -2.00592919 +1   0.91300255 +1
  C     0.24299612 +1  -2.64979907 +1  -1.24240098 +1
  H     2.36272981 +1  -3.05337067 +1  -1.34183775 +1
  H     1.82400641 +1  -1.52677568 +1  -2.16203715 +1
  C    -0.11568959 +1  -3.92790433 +1  -1.13963623 +1
  H    -0.49868770 +1  -1.84508896 +1  -1.30553635 +1
  H     0.60283675 +1  -4.73973371 +1  -1.05165525 +1
  H    -1.16028492 +1  -4.23332999 +1  -1.12662726 +1
  O     1.06614575 +1  -3.52049481 +1   2.07588557 +1
  C    -0.15220053 +1  -3.55089231 +1   2.11913437 +1
  C    -0.88298683 +1  -4.83390403 +1   2.06476290 +1
  C    -2.22519724 +1  -4.88179258 +1   2.00815532 +1
  C    -3.02650009 +1  -3.66373635 +1   2.01539847 +1
  C    -2.44722506 +1  -2.45545335 +1   2.12310437 +1
  C    -0.96497791 +1  -2.26046555 +1   2.20909619 +1
  H    -0.25354874 +1  -5.72331242 +1   2.06141003 +1
  H    -2.76312042 +1  -5.83115747 +1   1.95659210 +1
  H    -4.10662902 +1  -3.77785106 +1   1.93394519 +1
  H    -3.03651849 +1  -1.53571766 +1   2.13792644 +1
  C    -0.59860749 +1  -1.47116319 +1   3.48785927 +1
  H    -0.66588436 +1  -1.62505149 +1   1.30644597 +1
  C     0.82949394 +1  -1.00193248 +1   3.46036438 +1
  H    -0.74827420 +1  -2.13169681 +1   4.37769740 +1
  H    -1.28882974 +1  -0.59629282 +1   3.57603218 +1
  C     1.19014379 +1   0.27525467 +1   3.35219759 +1
  H     1.57015837 +1  -1.80747854 +1   3.52501795 +1
  H     0.47269513 +1   1.08843634 +1   3.26401713 +1
  H     2.23532039 +1   0.57839385 +1   3.33539786 +1
  H     4.10370384 +1  -2.09272747 +1   0.09513039 +1
 
 TIME=     0.09
  REACTANTS AND PRODUCTS SWAPPED AROUND
 *+*+*+*+*+*+*+*+*+*+*+*+*+*+*+*+*+*+*+*+*+*+*+*+*+*+*+*+*+*+*+*+*+*+*+*+*+*+*+*+
            BAR SHORTENED BY       1.000 PERCENT
 GRADIENT CRITERION IN FLEPO =     2.000


          FOR POINT   14 FIRST  STRUCTURE
 DISTANCE A - B      1.707286
 HEAT               -9.403552
 GRADIENT NORM      18.323299
 DIRECTION COSINE    0.312864
 PM6-D3H4 CHARGE=0 PRECISE XYZ


  O    -0.05987367 +1  -0.21152456 +1   0.22303473 +1
  C     1.30810523 +1  -0.11752558 +1   0.07114405 +1
  C     1.88015829 +1   1.15433058 +1   0.24934983 +1
  C     3.26976402 +1   1.26853005 +1   0.27798781 +1
  C     4.07390830 +1   0.12204236 +1   0.21272115 +1
  C     3.49521058 +1  -1.11455219 +1  -0.07147760 +1
  C     2.10974185 +1  -1.22129300 +1  -0.29459324 +1
  H     1.23514908 +1   2.02487418 +1   0.34226520 +1
  H     3.73806281 +1   2.24847107 +1   0.35661561 +1
  H     5.15261222 +1   0.19899691 +1   0.33280800 +1
  C     1.64710051 +1  -2.30441393 +1  -1.22611296 +1
  H     1.37818279 +1  -2.58946672 +1   1.48668833 +1
  C     0.20183559 +1  -2.69726336 +1  -1.19678653 +1
  H     2.30007058 +1  -3.20416446 +1  -1.12347567 +1
  H     1.83277437 +1  -1.85866756 +1  -2.25091299 +1
  C    -0.19581789 +1  -3.96456854 +1  -1.10710574 +1
  H    -0.50791195 +1  -1.87263796 +1  -1.31995476 +1
  H     0.50479909 +1  -4.79182750 +1  -1.00128836 +1
  H    -1.24681423 +1  -4.24523340 +1  -1.12065580 +1
  O     1.12067973 +1  -3.42691180 +1   1.98349436 +1
  C    -0.24895064 +1  -3.51799388 +1   2.12779022 +1
  C    -0.82568650 +1  -4.78371817 +1   1.92543812 +1
  C    -2.21597197 +1  -4.89215111 +1   1.89089109 +1
  C    -3.01611317 +1  -3.74480386 +1   1.97570397 +1
  C    -2.43285485 +1  -2.51621740 +1   2.28289807 +1
  C    -1.04742847 +1  -2.41664751 +1   2.50813781 +1
  H    -0.18471371 +1  -5.65580761 +1   1.81759204 +1
  H    -2.68731634 +1  -5.86895204 +1   1.78978709 +1
  H    -4.09459106 +1  -3.81755449 +1   1.85138450 +1
  H    -3.05842014 +1  -1.62939361 +1   2.38826009 +1
  C    -0.57820671 +1  -1.34496736 +1   3.44920194 +1
  H    -0.31393405 +1  -1.05969077 +1   0.71778132 +1
  C     0.86707323 +1  -0.95330505 +1   3.41108508 +1
  H    -0.75735270 +1  -1.80158090 +1   4.47122907 +1
  H    -1.23172487 +1  -0.44373066 +1   3.36028178 +1
  C     1.26722340 +1   0.31314055 +1   3.30742045 +1
  H     1.57703288 +1  -1.77672346 +1   3.53783094 +1
  H     0.56799280 +1   1.14004143 +1   3.19538868 +1
  H     2.31840281 +1   0.59092181 +1   3.31663051 +1
  H     4.12381466 +1  -1.99966605 +1  -0.16060622 +1
 
 *+*+*+*+*+*+*+*+*+*+*+*+*+*+*+*+*+*+*+*+*+*+*+*+*+*+*+*+*+*+*+*+*+*+*+*+*+*+*+*+
            BAR SHORTENED BY       1.000 PERCENT
 GRADIENT CRITERION IN FLEPO =     2.000


          FOR POINT   15 FIRST  STRUCTURE
 DISTANCE A - B      1.690213
 HEAT               -9.122623
 GRADIENT NORM      18.184455
 DIRECTION COSINE    0.919849
 PM6-D3H4 CHARGE=0 PRECISE XYZ


  O    -0.06087069 +1  -0.21429626 +1   0.22549911 +1
  C     1.30781910 +1  -0.11828657 +1   0.07110365 +1
  C     1.88018639 +1   1.15412539 +1   0.24690308 +1
  C     3.27009054 +1   1.26769607 +1   0.27477501 +1
  C     4.07378137 +1   0.12122343 +1   0.21260108 +1
  C     3.49438665 +1  -1.11496358 +1  -0.06902147 +1
  C     2.10962101 +1  -1.22199254 +1  -0.29185787 +1
  H     1.23607803 +1   2.02550256 +1   0.33574184 +1
  H     3.73883974 +1   2.24816725 +1   0.34312038 +1
  H     5.15142492 +1   0.19860512 +1   0.33109999 +1
  C     1.64686603 +1  -2.30315370 +1  -1.22608161 +1
  H     1.38017283 +1  -2.58557914 +1   1.48013075 +1
  C     0.20216556 +1  -2.69678606 +1  -1.19717089 +1
  H     2.30116079 +1  -3.20301855 +1  -1.12905734 +1
  H     1.83234998 +1  -1.85384390 +1  -2.25122213 +1
  C    -0.19432865 +1  -3.96436336 +1  -1.10745198 +1
  H    -0.50738972 +1  -1.87222198 +1  -1.31904477 +1
  H     0.50662056 +1  -4.79119633 +1  -1.00486298 +1
  H    -1.24318289 +1  -4.24514100 +1  -1.12087469 +1
  O     1.12126414 +1  -3.42632809 +1   1.98094797 +1
  C    -0.24893168 +1  -3.51758318 +1   2.12737245 +1
  C    -0.82574416 +1  -4.78403546 +1   1.92703652 +1
  C    -2.21628612 +1  -4.89190929 +1   1.89306440 +1
  C    -3.01614777 +1  -3.74427106 +1   1.97487903 +1
  C    -2.43233813 +1  -2.51460931 +1   2.28013051 +1
  C    -1.04776755 +1  -2.41614133 +1   2.50513071 +1
  H    -0.18719620 +1  -5.65675168 +1   1.82258866 +1
  H    -2.68824495 +1  -5.86884791 +1   1.79702772 +1
  H    -4.09469786 +1  -3.81623402 +1   1.85283719 +1
  H    -3.05828006 +1  -1.62792711 +1   2.38227657 +1
  C    -0.57752989 +1  -1.34701453 +1   3.44920181 +1
  H    -0.31436900 +1  -1.05654826 +1   0.72138223 +1
  C     0.86725130 +1  -0.95336444 +1   3.41185575 +1
  H    -0.75625920 +1  -1.80628551 +1   4.47082695 +1
  H    -1.23265924 +1  -0.44501431 +1   3.36498858 +1
  C     1.26620971 +1   0.31256780 +1   3.30932311 +1
  H     1.57710318 +1  -1.77726005 +1   3.53802880 +1
  H     0.56668242 +1   1.13996228 +1   3.20175444 +1
  H     2.31776039 +1   0.59171179 +1   3.32190232 +1
  H     4.12409225 +1  -2.00114829 +1  -0.15386270 +1
 
 *+*+*+*+*+*+*+*+*+*+*+*+*+*+*+*+*+*+*+*+*+*+*+*+*+*+*+*+*+*+*+*+*+*+*+*+*+*+*+*+
            BAR SHORTENED BY       1.000 PERCENT
 GRADIENT CRITERION IN FLEPO =     2.000


          FOR POINT   16 FIRST  STRUCTURE
 DISTANCE A - B      1.673311
 HEAT               -8.838218
 GRADIENT NORM      19.306510
 DIRECTION COSINE    0.919973
 PM6-D3H4 CHARGE=0 PRECISE XYZ


  O    -0.06057609 +1  -0.21380751 +1   0.22621058 +1
  C     1.30669849 +1  -0.11834679 +1   0.07482662 +1
  C     1.88050933 +1   1.15385792 +1   0.24434773 +1
  C     3.27029446 +1   1.26732222 +1   0.27029576 +1
  C     4.07384211 +1   0.12009794 +1   0.21357140 +1
  C     3.49423183 +1  -1.11652437 +1  -0.06239041 +1
  C     2.10887559 +1  -1.22394061 +1  -0.28815467 +1
  H     1.23741646 +1   2.02663082 +1   0.33008715 +1
  H     3.74013848 +1   2.24772356 +1   0.33949454 +1
  H     5.15204179 +1   0.19831827 +1   0.33085540 +1
  C     1.64713316 +1  -2.30003121 +1  -1.22626647 +1
  H     1.37962370 +1  -2.58196455 +1   1.48885507 +1
  C     0.20279988 +1  -2.69603605 +1  -1.19782709 +1
  H     2.30240973 +1  -3.20055664 +1  -1.13600697 +1
  H     1.82758975 +1  -1.84671914 +1  -2.25097072 +1
  C    -0.19155949 +1  -3.96393237 +1  -1.11036059 +1
  H    -0.50805866 +1  -1.87204869 +1  -1.31846792 +1
  H     0.50914690 +1  -4.79130085 +1  -1.00582025 +1
  H    -1.24253655 +1  -4.24605918 +1  -1.12744416 +1
  O     1.12113777 +1  -3.42640880 +1   1.97947480 +1
  C    -0.24784223 +1  -3.51761889 +1   2.12264428 +1
  C    -0.82653385 +1  -4.78443384 +1   1.92939105 +1
  C    -2.21684787 +1  -4.89162254 +1   1.89576058 +1
  C    -3.01623488 +1  -3.74306423 +1   1.97452003 +1
  C    -2.43231717 +1  -2.51377242 +1   2.27621707 +1
  C    -1.04652221 +1  -2.41433891 +1   2.50069467 +1
  H    -0.18792002 +1  -5.65809876 +1   1.83125926 +1
  H    -2.68973580 +1  -5.86857496 +1   1.80763310 +1
  H    -4.09498732 +1  -3.81596206 +1   1.85121287 +1
  H    -3.05802832 +1  -1.62627879 +1   2.37524889 +1
  C    -0.57819122 +1  -1.34875194 +1   3.44886674 +1
  H    -0.31791106 +1  -1.05212176 +1   0.73043535 +1
  C     0.86634177 +1  -0.95517438 +1   3.41094570 +1
  H    -0.75563990 +1  -1.81323429 +1   4.46665642 +1
  H    -1.23456258 +1  -0.44793677 +1   3.36924106 +1
  C     1.26391050 +1   0.31162817 +1   3.31075400 +1
  H     1.57544138 +1  -1.78259071 +1   3.52936963 +1
  H     0.56312316 +1   1.13707305 +1   3.20179049 +1
  H     2.31397811 +1   0.59007968 +1   3.32054890 +1
  H     4.12174332 +1  -2.00440642 +1  -0.14773419 +1
 
 TIME=     0.73
  REACTANTS AND PRODUCTS SWAPPED AROUND
 *+*+*+*+*+*+*+*+*+*+*+*+*+*+*+*+*+*+*+*+*+*+*+*+*+*+*+*+*+*+*+*+*+*+*+*+*+*+*+*+
            BAR SHORTENED BY       0.000 PERCENT
 GRADIENT CRITERION IN FLEPO =     2.000


          FOR POINT   17 SECOND STRUCTURE
 DISTANCE A - B      1.673311
 HEAT               -4.418060
 GRADIENT NORM       0.721438
 DIRECTION COSINE    0.314869
 PM6-D3H4 CHARGE=0 PRECISE XYZ


  O    -0.00560466 +1  -0.12310612 +1   0.13754367 +1
  C     1.21219223 +1  -0.08829304 +1   0.08308554 +1
  C     1.93790331 +1   1.19837919 +1   0.10817600 +1
  C     3.28029769 +1   1.25231740 +1   0.15589818 +1
  C     4.08645955 +1   0.03740395 +1   0.17227342 +1
  C     3.51141417 +1  -1.17482121 +1   0.09055946 +1
  C     2.02983914 +1  -1.37663577 +1   0.00642196 +1
  H     1.30516592 +1   2.08543633 +1   0.09716755 +1
  H     3.81485851 +1   2.20463338 +1   0.18258465 +1
  H     5.16630884 +1   0.15695695 +1   0.25004468 +1
  C     1.67046767 +1  -2.17871512 +1  -1.26654193 +1
  H     1.73242830 +1  -2.00592919 +1   0.91300255 +1
  C     0.24299612 +1  -2.64979907 +1  -1.24240098 +1
  H     2.36272981 +1  -3.05337067 +1  -1.34183775 +1
  H     1.82400641 +1  -1.52677568 +1  -2.16203715 +1
  C    -0.11568959 +1  -3.92790433 +1  -1.13963623 +1
  H    -0.49868770 +1  -1.84508896 +1  -1.30553635 +1
  H     0.60283675 +1  -4.73973371 +1  -1.05165525 +1
  H    -1.16028492 +1  -4.23332999 +1  -1.12662726 +1
  O     1.06614575 +1  -3.52049481 +1   2.07588557 +1
  C    -0.15220053 +1  -3.55089231 +1   2.11913437 +1
  C    -0.88298683 +1  -4.83390403 +1   2.06476290 +1
  C    -2.22519724 +1  -4.88179258 +1   2.00815532 +1
  C    -3.02650009 +1  -3.66373635 +1   2.01539847 +1
  C    -2.44722506 +1  -2.45545335 +1   2.12310437 +1
  C    -0.96497791 +1  -2.26046555 +1   2.20909619 +1
  H    -0.25354874 +1  -5.72331242 +1   2.06141003 +1
  H    -2.76312042 +1  -5.83115747 +1   1.95659210 +1
  H    -4.10662902 +1  -3.77785106 +1   1.93394519 +1
  H    -3.03651849 +1  -1.53571766 +1   2.13792644 +1
  C    -0.59860749 +1  -1.47116319 +1   3.48785927 +1
  H    -0.66588436 +1  -1.62505149 +1   1.30644597 +1
  C     0.82949394 +1  -1.00193248 +1   3.46036438 +1
  H    -0.74827420 +1  -2.13169681 +1   4.37769740 +1
  H    -1.28882974 +1  -0.59629282 +1   3.57603218 +1
  C     1.19014379 +1   0.27525467 +1   3.35219759 +1
  H     1.57015837 +1  -1.80747854 +1   3.52501795 +1
  H     0.47269513 +1   1.08843634 +1   3.26401713 +1
  H     2.23532039 +1   0.57839385 +1   3.33539786 +1
  H     4.10370384 +1  -2.09272747 +1   0.09513039 +1
 
 TIME=     0.09
  REACTANTS AND PRODUCTS SWAPPED AROUND
 *+*+*+*+*+*+*+*+*+*+*+*+*+*+*+*+*+*+*+*+*+*+*+*+*+*+*+*+*+*+*+*+*+*+*+*+*+*+*+*+
            BAR SHORTENED BY       1.000 PERCENT
 GRADIENT CRITERION IN FLEPO =     2.000


          FOR POINT   18 FIRST  STRUCTURE
 DISTANCE A - B      1.656578
 HEAT               -8.553068
 GRADIENT NORM      19.264354
 DIRECTION COSINE    0.344715
 PM6-D3H4 CHARGE=0 PRECISE XYZ


  O    -0.06165155 +1  -0.21494274 +1   0.22826293 +1
  C     1.30672856 +1  -0.11911635 +1   0.07467450 +1
  C     1.88019559 +1   1.15383040 +1   0.24143453 +1
  C     3.27069499 +1   1.26690738 +1   0.26738727 +1
  C     4.07389315 +1   0.11971237 +1   0.21383716 +1
  C     3.49339205 +1  -1.11815649 +1  -0.06113015 +1
  C     2.10912707 +1  -1.22450489 +1  -0.28528237 +1
  H     1.23864544 +1   2.02738332 +1   0.32399601 +1
  H     3.74088456 +1   2.24739512 +1   0.32583664 +1
  H     5.15246339 +1   0.19813522 +1   0.33075886 +1
  C     1.64698813 +1  -2.29927608 +1  -1.22717706 +1
  H     1.38192598 +1  -2.57980257 +1   1.48201077 +1
  C     0.20325821 +1  -2.69542660 +1  -1.19739153 +1
  H     2.30411788 +1  -3.19850843 +1  -1.14313142 +1
  H     1.82753795 +1  -1.84066950 +1  -2.24972658 +1
  C    -0.19115440 +1  -3.96396616 +1  -1.11269332 +1
  H    -0.50771252 +1  -1.87176518 +1  -1.31543191 +1
  H     0.51141963 +1  -4.79011643 +1  -1.00643890 +1
  H    -1.24132293 +1  -4.24600611 +1  -1.12682497 +1
  O     1.12174803 +1  -3.42504908 +1   1.97593268 +1
  C    -0.24808689 +1  -3.51716424 +1   2.12302067 +1
  C    -0.82661496 +1  -4.78414779 +1   1.93135920 +1
  C    -2.21726543 +1  -4.89119098 +1   1.89901653 +1
  C    -3.01635521 +1  -3.74261612 +1   1.97407390 +1
  C    -2.43176543 +1  -2.51273753 +1   2.27232743 +1
  C    -1.04729033 +1  -2.41395453 +1   2.49771463 +1
  H    -0.18818079 +1  -5.65931805 +1   1.83539876 +1
  H    -2.69080484 +1  -5.86874280 +1   1.80961938 +1
  H    -4.09506201 +1  -3.81559786 +1   1.85210596 +1
  H    -3.05684324 +1  -1.62329084 +1   2.36941447 +1
  C    -0.57832209 +1  -1.34977092 +1   3.44817643 +1
  H    -0.31847015 +1  -1.05251439 +1   0.73453270 +1
  C     0.86615059 +1  -0.95635648 +1   3.40852001 +1
  H    -0.75523706 +1  -1.81796176 +1   4.46639592 +1
  H    -1.23596750 +1  -0.45035506 +1   3.37311481 +1
  C     1.26277866 +1   0.31081483 +1   3.31168773 +1
  H     1.57502593 +1  -1.78220493 +1   3.53146281 +1
  H     0.56116130 +1   1.13697019 +1   3.20301483 +1
  H     2.31357833 +1   0.59082920 +1   3.31943896 +1
  H     4.12041365 +1  -2.00775652 +1  -0.14307363 +1
 
 *+*+*+*+*+*+*+*+*+*+*+*+*+*+*+*+*+*+*+*+*+*+*+*+*+*+*+*+*+*+*+*+*+*+*+*+*+*+*+*+
            BAR SHORTENED BY       1.000 PERCENT
 GRADIENT CRITERION IN FLEPO =     2.000


          FOR POINT   19 FIRST  STRUCTURE
 DISTANCE A - B      1.640012
 HEAT               -8.260136
 GRADIENT NORM      20.017741
 DIRECTION COSINE    0.952467
 PM6-D3H4 CHARGE=0 PRECISE XYZ


  O    -0.06176449 +1  -0.21557693 +1   0.22995564 +1
  C     1.30597399 +1  -0.11924325 +1   0.07573490 +1
  C     1.88070587 +1   1.15388447 +1   0.23923866 +1
  C     3.27101761 +1   1.26587381 +1   0.26356668 +1
  C     4.07369426 +1   0.11672067 +1   0.21329669 +1
  C     3.49191695 +1  -1.12212489 +1  -0.05721231 +1
  C     2.10795484 +1  -1.22605960 +1  -0.28358131 +1
  H     1.23910510 +1   2.02829823 +1   0.31818915 +1
  H     3.74188134 +1   2.24685240 +1   0.32479165 +1
  H     5.15259161 +1   0.19639113 +1   0.32961709 +1
  C     1.64698833 +1  -2.29724296 +1  -1.22858921 +1
  H     1.38182785 +1  -2.58415785 +1   1.47277411 +1
  C     0.20357231 +1  -2.69492869 +1  -1.19774664 +1
  H     2.30543435 +1  -3.19464498 +1  -1.14763602 +1
  H     1.82513912 +1  -1.82900961 +1  -2.24812815 +1
  C    -0.18967114 +1  -3.96398880 +1  -1.11241575 +1
  H    -0.50783908 +1  -1.87118085 +1  -1.31281713 +1
  H     0.51404366 +1  -4.78907803 +1  -1.00785253 +1
  H    -1.23925127 +1  -4.24678226 +1  -1.12664973 +1
  O     1.12172175 +1  -3.42610777 +1   1.97492330 +1
  C    -0.24726578 +1  -3.51696375 +1   2.12037838 +1
  C    -0.82704103 +1  -4.78456715 +1   1.93400351 +1
  C    -2.21761538 +1  -4.89092675 +1   1.90323479 +1
  C    -3.01658350 +1  -3.74186830 +1   1.97394140 +1
  C    -2.43139341 +1  -2.51146287 +1   2.26691214 +1
  C    -1.04605412 +1  -2.41275620 +1   2.49363532 +1
  H    -0.18903864 +1  -5.66034614 +1   1.84058904 +1
  H    -2.69158516 +1  -5.86724980 +1   1.81503638 +1
  H    -4.09510733 +1  -3.81463083 +1   1.85338092 +1
  H    -3.05565932 +1  -1.62198404 +1   2.36375821 +1
  C    -0.57910933 +1  -1.35224746 +1   3.44855867 +1
  H    -0.30250973 +1  -1.05649887 +1   0.74004564 +1
  C     0.86542256 +1  -0.95709334 +1   3.40980474 +1
  H    -0.75384769 +1  -1.82722336 +1   4.46453827 +1
  H    -1.23455343 +1  -0.45345233 +1   3.37752480 +1
  C     1.26059956 +1   0.31026522 +1   3.31185259 +1
  H     1.57482374 +1  -1.78219054 +1   3.53066963 +1
  H     0.55840315 +1   1.13555769 +1   3.20518180 +1
  H     2.31122666 +1   0.59117674 +1   3.32015096 +1
  H     4.11950893 +1  -2.01041761 +1  -0.13648382 +1
 
 *+*+*+*+*+*+*+*+*+*+*+*+*+*+*+*+*+*+*+*+*+*+*+*+*+*+*+*+*+*+*+*+*+*+*+*+*+*+*+*+
            BAR SHORTENED BY       1.000 PERCENT
 GRADIENT CRITERION IN FLEPO =     2.000


          FOR POINT   20 FIRST  STRUCTURE
 DISTANCE A - B      1.623612
 HEAT               -7.991679
 GRADIENT NORM      19.378168
 DIRECTION COSINE    0.929436
 PM6-D3H4 CHARGE=0 PRECISE XYZ


  O    -0.06149121 +1  -0.21600052 +1   0.23318985 +1
  C     1.30654275 +1  -0.11978296 +1   0.07598351 +1
  C     1.88034461 +1   1.15318610 +1   0.23578587 +1
  C     3.27160876 +1   1.26457541 +1   0.25915920 +1
  C     4.07337791 +1   0.11670965 +1   0.21394135 +1
  C     3.49204249 +1  -1.12239283 +1  -0.05294524 +1
  C     2.10843151 +1  -1.22622127 +1  -0.28084896 +1
  H     1.23926189 +1   2.02854881 +1   0.31318144 +1
  H     3.74193997 +1   2.24467274 +1   0.32236680 +1
  H     5.15178885 +1   0.19495401 +1   0.33232833 +1
  C     1.64666321 +1  -2.29432088 +1  -1.23055543 +1
  H     1.37822223 +1  -2.58244081 +1   1.47337063 +1
  C     0.20426176 +1  -2.69423527 +1  -1.19607351 +1
  H     2.30718624 +1  -3.19262365 +1  -1.15526431 +1
  H     1.82281165 +1  -1.82047535 +1  -2.24606203 +1
  C    -0.18731749 +1  -3.96399767 +1  -1.11055059 +1
  H    -0.50795943 +1  -1.87083468 +1  -1.30758242 +1
  H     0.51792191 +1  -4.78810985 +1  -1.00979303 +1
  H    -1.23636967 +1  -4.24783933 +1  -1.11901213 +1
  O     1.12206425 +1  -3.42652323 +1   1.97146882 +1
  C    -0.24768159 +1  -3.51642608 +1   2.11850860 +1
  C    -0.82640392 +1  -4.78396801 +1   1.93634468 +1
  C    -2.21781684 +1  -4.89027580 +1   1.90685004 +1
  C    -3.01625819 +1  -3.74116944 +1   1.97247997 +1
  C    -2.43082672 +1  -2.50930361 +1   2.26334626 +1
  C    -1.04603680 +1  -2.41313171 +1   2.49115884 +1
  H    -0.18647237 +1  -5.66048227 +1   1.84561734 +1
  H    -2.69190067 +1  -5.86797529 +1   1.82361412 +1
  H    -4.09406188 +1  -3.81359824 +1   1.85259370 +1
  H    -3.05223766 +1  -1.61765909 +1   2.35526802 +1
  C    -0.57880784 +1  -1.35524015 +1   3.44874009 +1
  H    -0.30982622 +1  -1.05606849 +1   0.74330161 +1
  C     0.86428565 +1  -0.95883569 +1   3.40988176 +1
  H    -0.75173913 +1  -1.83622727 +1   4.46296116 +1
  H    -1.23725108 +1  -0.45488230 +1   3.38292882 +1
  C     1.25743954 +1   0.31012696 +1   3.31201134 +1
  H     1.57552049 +1  -1.78255351 +1   3.52847649 +1
  H     0.55253323 +1   1.13326403 +1   3.20647766 +1
  H     2.30584576 +1   0.59573813 +1   3.31832447 +1
  H     4.11754229 +1  -2.01332930 +1  -0.12717576 +1
 
 TIME=     1.12
  REACTANTS AND PRODUCTS SWAPPED AROUND
 *+*+*+*+*+*+*+*+*+*+*+*+*+*+*+*+*+*+*+*+*+*+*+*+*+*+*+*+*+*+*+*+*+*+*+*+*+*+*+*+
            BAR SHORTENED BY       0.000 PERCENT
 GRADIENT CRITERION IN FLEPO =     2.000


          FOR POINT   21 SECOND STRUCTURE
 DISTANCE A - B      1.623612
 HEAT               -4.418060
 GRADIENT NORM       0.721438
 DIRECTION COSINE    0.318486
 PM6-D3H4 CHARGE=0 PRECISE XYZ


  O    -0.00560466 +1  -0.12310612 +1   0.13754367 +1
  C     1.21219223 +1  -0.08829304 +1   0.08308554 +1
  C     1.93790331 +1   1.19837919 +1   0.10817600 +1
  C     3.28029769 +1   1.25231740 +1   0.15589818 +1
  C     4.08645955 +1   0.03740395 +1   0.17227342 +1
  C     3.51141417 +1  -1.17482121 +1   0.09055946 +1
  C     2.02983914 +1  -1.37663577 +1   0.00642196 +1
  H     1.30516592 +1   2.08543633 +1   0.09716755 +1
  H     3.81485851 +1   2.20463338 +1   0.18258465 +1
  H     5.16630884 +1   0.15695695 +1   0.25004468 +1
  C     1.67046767 +1  -2.17871512 +1  -1.26654193 +1
  H     1.73242830 +1  -2.00592919 +1   0.91300255 +1
  C     0.24299612 +1  -2.64979907 +1  -1.24240098 +1
  H     2.36272981 +1  -3.05337067 +1  -1.34183775 +1
  H     1.82400641 +1  -1.52677568 +1  -2.16203715 +1
  C    -0.11568959 +1  -3.92790433 +1  -1.13963623 +1
  H    -0.49868770 +1  -1.84508896 +1  -1.30553635 +1
  H     0.60283675 +1  -4.73973371 +1  -1.05165525 +1
  H    -1.16028492 +1  -4.23332999 +1  -1.12662726 +1
  O     1.06614575 +1  -3.52049481 +1   2.07588557 +1
  C    -0.15220053 +1  -3.55089231 +1   2.11913437 +1
  C    -0.88298683 +1  -4.83390403 +1   2.06476290 +1
  C    -2.22519724 +1  -4.88179258 +1   2.00815532 +1
  C    -3.02650009 +1  -3.66373635 +1   2.01539847 +1
  C    -2.44722506 +1  -2.45545335 +1   2.12310437 +1
  C    -0.96497791 +1  -2.26046555 +1   2.20909619 +1
  H    -0.25354874 +1  -5.72331242 +1   2.06141003 +1
  H    -2.76312042 +1  -5.83115747 +1   1.95659210 +1
  H    -4.10662902 +1  -3.77785106 +1   1.93394519 +1
  H    -3.03651849 +1  -1.53571766 +1   2.13792644 +1
  C    -0.59860749 +1  -1.47116319 +1   3.48785927 +1
  H    -0.66588436 +1  -1.62505149 +1   1.30644597 +1
  C     0.82949394 +1  -1.00193248 +1   3.46036438 +1
  H    -0.74827420 +1  -2.13169681 +1   4.37769740 +1
  H    -1.28882974 +1  -0.59629282 +1   3.57603218 +1
  C     1.19014379 +1   0.27525467 +1   3.35219759 +1
  H     1.57015837 +1  -1.80747854 +1   3.52501795 +1
  H     0.47269513 +1   1.08843634 +1   3.26401713 +1
  H     2.23532039 +1   0.57839385 +1   3.33539786 +1
  H     4.10370384 +1  -2.09272747 +1   0.09513039 +1
 
 TIME=     0.09
  REACTANTS AND PRODUCTS SWAPPED AROUND
 *+*+*+*+*+*+*+*+*+*+*+*+*+*+*+*+*+*+*+*+*+*+*+*+*+*+*+*+*+*+*+*+*+*+*+*+*+*+*+*+
            BAR SHORTENED BY       1.000 PERCENT
 GRADIENT CRITERION IN FLEPO =     2.000


          FOR POINT   22 FIRST  STRUCTURE
 DISTANCE A - B      1.607376
 HEAT               -7.659747
 GRADIENT NORM      23.575809
 DIRECTION COSINE    0.365149
 PM6-D3H4 CHARGE=0 PRECISE XYZ


  O    -0.06122230 +1  -0.21600803 +1   0.23337737 +1
  C     1.30568343 +1  -0.11973208 +1   0.07720103 +1
  C     1.88088673 +1   1.15361813 +1   0.23415698 +1
  C     3.27159680 +1   1.26414889 +1   0.25784807 +1
  C     4.07355043 +1   0.11579094 +1   0.21374380 +1
  C     3.49219237 +1  -1.12329225 +1  -0.05009005 +1
  C     2.10771316 +1  -1.22760256 +1  -0.27802584 +1
  H     1.24001832 +1   2.02895807 +1   0.31005291 +1
  H     3.74272254 +1   2.24434853 +1   0.31956340 +1
  H     5.15214495 +1   0.19245983 +1   0.33127334 +1
  C     1.64691040 +1  -2.29283964 +1  -1.23084247 +1
  H     1.38137091 +1  -2.58114372 +1   1.46753246 +1
  C     0.20462737 +1  -2.69385917 +1  -1.19664403 +1
  H     2.30771200 +1  -3.19084243 +1  -1.15799340 +1
  H     1.81376060 +1  -1.81704597 +1  -2.24541154 +1
  C    -0.18649949 +1  -3.96361634 +1  -1.11075477 +1
  H    -0.51386601 +1  -1.87116537 +1  -1.30808777 +1
  H     0.51909182 +1  -4.78752997 +1  -1.01083462 +1
  H    -1.23570255 +1  -4.24823216 +1  -1.11977729 +1
  O     1.12171871 +1  -3.42638516 +1   1.97092449 +1
  C    -0.24688072 +1  -3.51673863 +1   2.11822466 +1
  C    -0.82692918 +1  -4.78469068 +1   1.93777199 +1
  C    -2.21778770 +1  -4.89035971 +1   1.90799378 +1
  C    -3.01620482 +1  -3.74031167 +1   1.97287521 +1
  C    -2.43088702 +1  -2.50835127 +1   2.25977299 +1
  C    -1.04542599 +1  -2.41179085 +1   2.48830292 +1
  H    -0.18741907 +1  -5.66098186 +1   1.84841008 +1
  H    -2.69267691 +1  -5.86768207 +1   1.82836291 +1
  H    -4.09439161 +1  -3.81342902 +1   1.85159103 +1
  H    -3.05222321 +1  -1.61681799 +1   2.35155731 +1
  C    -0.57905488 +1  -1.35676745 +1   3.44924089 +1
  H    -0.31345423 +1  -1.05982874 +1   0.74781524 +1
  C     0.86401809 +1  -0.95915745 +1   3.41030288 +1
  H    -0.75116402 +1  -1.84364072 +1   4.46182077 +1
  H    -1.23853761 +1  -0.45856458 +1   3.38615851 +1
  C     1.25660227 +1   0.30965150 +1   3.31252192 +1
  H     1.57550609 +1  -1.78280798 +1   3.52825840 +1
  H     0.55077454 +1   1.13281415 +1   3.20882437 +1
  H     2.30523576 +1   0.58953770 +1   3.31860447 +1
  H     4.11568195 +1  -2.01574581 +1  -0.12378582 +1
 
 *+*+*+*+*+*+*+*+*+*+*+*+*+*+*+*+*+*+*+*+*+*+*+*+*+*+*+*+*+*+*+*+*+*+*+*+*+*+*+*+
            BAR SHORTENED BY       1.000 PERCENT
 GRADIENT CRITERION IN FLEPO =     2.000


          FOR POINT   23 FIRST  STRUCTURE
 DISTANCE A - B      1.591302
 HEAT               -7.366118
 GRADIENT NORM      20.781690
 DIRECTION COSINE    0.943584
 PM6-D3H4 CHARGE=0 PRECISE XYZ


  O    -0.06217051 +1  -0.21868424 +1   0.23675760 +1
  C     1.30549630 +1  -0.12045945 +1   0.08172818 +1
  C     1.88082380 +1   1.15297468 +1   0.23186994 +1
  C     3.27197907 +1   1.26163944 +1   0.25484363 +1
  C     4.07437138 +1   0.11343293 +1   0.21486683 +1
  C     3.49151246 +1  -1.12656429 +1  -0.04470169 +1
  C     2.10764690 +1  -1.22810050 +1  -0.27471217 +1
  H     1.24207997 +1   2.02993047 +1   0.30379885 +1
  H     3.74399884 +1   2.24120663 +1   0.31096056 +1
  H     5.15314812 +1   0.19254617 +1   0.32916090 +1
  C     1.64554183 +1  -2.28936914 +1  -1.23051446 +1
  H     1.37963842 +1  -2.58394328 +1   1.46092345 +1
  C     0.20368810 +1  -2.69155613 +1  -1.19619417 +1
  H     2.30893756 +1  -3.18435067 +1  -1.16354536 +1
  H     1.81557095 +1  -1.81200011 +1  -2.24555825 +1
  C    -0.18475769 +1  -3.96292965 +1  -1.11342989 +1
  H    -0.51232127 +1  -1.87208849 +1  -1.30958675 +1
  H     0.52349397 +1  -4.78624887 +1  -1.01119790 +1
  H    -1.23249117 +1  -4.25168134 +1  -1.12290811 +1
  O     1.12237203 +1  -3.42380517 +1   1.96653952 +1
  C    -0.24703579 +1  -3.51649848 +1   2.11224305 +1
  C    -0.82686489 +1  -4.78570170 +1   1.93966317 +1
  C    -2.21827512 +1  -4.88999913 +1   1.91073688 +1
  C    -3.01698765 +1  -3.73996081 +1   1.97163169 +1
  C    -2.43028008 +1  -2.50684593 +1   2.25297280 +1
  C    -1.04593339 +1  -2.41148055 +1   2.48460537 +1
  H    -0.19004026 +1  -5.66371651 +1   1.85342725 +1
  H    -2.69397917 +1  -5.86781113 +1   1.83498922 +1
  H    -4.09543541 +1  -3.81352943 +1   1.85316407 +1
  H    -3.05258676 +1  -1.61540927 +1   2.34452202 +1
  C    -0.57886567 +1  -1.36252871 +1   3.45066083 +1
  H    -0.31341997 +1  -1.05879229 +1   0.74826697 +1
  C     0.86308036 +1  -0.95923508 +1   3.41153416 +1
  H    -0.74805337 +1  -1.85715519 +1   4.45923827 +1
  H    -1.24064455 +1  -0.46497261 +1   3.39321213 +1
  C     1.25498005 +1   0.30872429 +1   3.31473805 +1
  H     1.57589821 +1  -1.78322533 +1   3.52601912 +1
  H     0.54914550 +1   1.13191053 +1   3.21249312 +1
  H     2.30537719 +1   0.59142728 +1   3.31984798 +1
  H     4.11558664 +1  -2.01795778 +1  -0.11758871 +1
 
 *+*+*+*+*+*+*+*+*+*+*+*+*+*+*+*+*+*+*+*+*+*+*+*+*+*+*+*+*+*+*+*+*+*+*+*+*+*+*+*+
            BAR SHORTENED BY       1.000 PERCENT
 GRADIENT CRITERION IN FLEPO =     2.000


          FOR POINT   24 FIRST  STRUCTURE
 DISTANCE A - B      1.575389
 HEAT               -7.058777
 GRADIENT NORM      21.207048
 DIRECTION COSINE    0.962129
 PM6-D3H4 CHARGE=0 PRECISE XYZ


  O    -0.06245522 +1  -0.22003950 +1   0.23879818 +1
  C     1.30484215 +1  -0.12083063 +1   0.08130286 +1
  C     1.88108881 +1   1.15271115 +1   0.23041483 +1
  C     3.27228235 +1   1.26111080 +1   0.25236321 +1
  C     4.07413052 +1   0.11180929 +1   0.21590928 +1
  C     3.49123723 +1  -1.12943446 +1  -0.04267844 +1
  C     2.10710491 +1  -1.22908125 +1  -0.27177497 +1
  H     1.24273135 +1   2.03052856 +1   0.29734399 +1
  H     3.74496732 +1   2.24128482 +1   0.30628216 +1
  H     5.15327737 +1   0.19109937 +1   0.32962878 +1
  C     1.64517254 +1  -2.28807925 +1  -1.23121128 +1
  H     1.38105606 +1  -2.58337647 +1   1.45522805 +1
  C     0.20386786 +1  -2.69168779 +1  -1.19769398 +1
  H     2.30980528 +1  -3.18333231 +1  -1.17154172 +1
  H     1.81634508 +1  -1.80379218 +1  -2.24453721 +1
  C    -0.18324900 +1  -3.96252975 +1  -1.11254726 +1
  H    -0.51208948 +1  -1.87023312 +1  -1.30907041 +1
  H     0.52395490 +1  -4.78466561 +1  -1.01407949 +1
  H    -1.23176162 +1  -4.25132307 +1  -1.12427942 +1
  O     1.12245046 +1  -3.42242664 +1   1.96346939 +1
  C    -0.24663167 +1  -3.51649263 +1   2.11286512 +1
  C    -0.82718365 +1  -4.78629336 +1   1.94037539 +1
  C    -2.21857919 +1  -4.88988778 +1   1.91292993 +1
  C    -3.01650914 +1  -3.73931510 +1   1.97048932 +1
  C    -2.43007036 +1  -2.50580896 +1   2.25208551 +1
  C    -1.04543990 +1  -2.41097688 +1   2.48122943 +1
  H    -0.19138334 +1  -5.66353077 +1   1.85687511 +1
  H    -2.69436880 +1  -5.86737694 +1   1.83778133 +1
  H    -4.09583384 +1  -3.81195220 +1   1.85050125 +1
  H    -3.05133660 +1  -1.61367735 +1   2.33898045 +1
  C    -0.57888185 +1  -1.36561884 +1   3.45163337 +1
  H    -0.31507943 +1  -1.05869470 +1   0.75194705 +1
  C     0.86248723 +1  -0.96022531 +1   3.41190520 +1
  H    -0.74453061 +1  -1.86347846 +1   4.45723000 +1
  H    -1.24195464 +1  -0.46872348 +1   3.40152295 +1
  C     1.25108598 +1   0.30866950 +1   3.31665990 +1
  H     1.57692289 +1  -1.78047890 +1   3.52629089 +1
  H     0.54618897 +1   1.13220351 +1   3.21645524 +1
  H     2.30059786 +1   0.59515606 +1   3.32209443 +1
  H     4.11421704 +1  -2.02292650 +1  -0.11128107 +1
 
 TIME=     0.89
  REACTANTS AND PRODUCTS SWAPPED AROUND
 *+*+*+*+*+*+*+*+*+*+*+*+*+*+*+*+*+*+*+*+*+*+*+*+*+*+*+*+*+*+*+*+*+*+*+*+*+*+*+*+
            BAR SHORTENED BY       0.000 PERCENT
 GRADIENT CRITERION IN FLEPO =     2.000


          FOR POINT   25 SECOND STRUCTURE
 DISTANCE A - B      1.575389
 HEAT               -4.418060
 GRADIENT NORM       0.721438
 DIRECTION COSINE    0.340186
 PM6-D3H4 CHARGE=0 PRECISE XYZ


  O    -0.00560466 +1  -0.12310612 +1   0.13754367 +1
  C     1.21219223 +1  -0.08829304 +1   0.08308554 +1
  C     1.93790331 +1   1.19837919 +1   0.10817600 +1
  C     3.28029769 +1   1.25231740 +1   0.15589818 +1
  C     4.08645955 +1   0.03740395 +1   0.17227342 +1
  C     3.51141417 +1  -1.17482121 +1   0.09055946 +1
  C     2.02983914 +1  -1.37663577 +1   0.00642196 +1
  H     1.30516592 +1   2.08543633 +1   0.09716755 +1
  H     3.81485851 +1   2.20463338 +1   0.18258465 +1
  H     5.16630884 +1   0.15695695 +1   0.25004468 +1
  C     1.67046767 +1  -2.17871512 +1  -1.26654193 +1
  H     1.73242830 +1  -2.00592919 +1   0.91300255 +1
  C     0.24299612 +1  -2.64979907 +1  -1.24240098 +1
  H     2.36272981 +1  -3.05337067 +1  -1.34183775 +1
  H     1.82400641 +1  -1.52677568 +1  -2.16203715 +1
  C    -0.11568959 +1  -3.92790433 +1  -1.13963623 +1
  H    -0.49868770 +1  -1.84508896 +1  -1.30553635 +1
  H     0.60283675 +1  -4.73973371 +1  -1.05165525 +1
  H    -1.16028492 +1  -4.23332999 +1  -1.12662726 +1
  O     1.06614575 +1  -3.52049481 +1   2.07588557 +1
  C    -0.15220053 +1  -3.55089231 +1   2.11913437 +1
  C    -0.88298683 +1  -4.83390403 +1   2.06476290 +1
  C    -2.22519724 +1  -4.88179258 +1   2.00815532 +1
  C    -3.02650009 +1  -3.66373635 +1   2.01539847 +1
  C    -2.44722506 +1  -2.45545335 +1   2.12310437 +1
  C    -0.96497791 +1  -2.26046555 +1   2.20909619 +1
  H    -0.25354874 +1  -5.72331242 +1   2.06141003 +1
  H    -2.76312042 +1  -5.83115747 +1   1.95659210 +1
  H    -4.10662902 +1  -3.77785106 +1   1.93394519 +1
  H    -3.03651849 +1  -1.53571766 +1   2.13792644 +1
  C    -0.59860749 +1  -1.47116319 +1   3.48785927 +1
  H    -0.66588436 +1  -1.62505149 +1   1.30644597 +1
  C     0.82949394 +1  -1.00193248 +1   3.46036438 +1
  H    -0.74827420 +1  -2.13169681 +1   4.37769740 +1
  H    -1.28882974 +1  -0.59629282 +1   3.57603218 +1
  C     1.19014379 +1   0.27525467 +1   3.35219759 +1
  H     1.57015837 +1  -1.80747854 +1   3.52501795 +1
  H     0.47269513 +1   1.08843634 +1   3.26401713 +1
  H     2.23532039 +1   0.57839385 +1   3.33539786 +1
  H     4.10370384 +1  -2.09272747 +1   0.09513039 +1
 
 TIME=     0.09
  REACTANTS AND PRODUCTS SWAPPED AROUND
 *+*+*+*+*+*+*+*+*+*+*+*+*+*+*+*+*+*+*+*+*+*+*+*+*+*+*+*+*+*+*+*+*+*+*+*+*+*+*+*+
            BAR SHORTENED BY       1.000 PERCENT
 GRADIENT CRITERION IN FLEPO =     2.000


          FOR POINT   26 FIRST  STRUCTURE
[...]
     15          5  C    CARTESIAN Z     0.449271     -0.583226  KCAL/ANGSTROM
     16          6  C    CARTESIAN X     3.396803      1.094217  KCAL/ANGSTROM
     17          6  C    CARTESIAN Y    -1.212283      0.514896  KCAL/ANGSTROM
     18          6  C    CARTESIAN Z     0.175032     -0.117962  KCAL/ANGSTROM
     19          7  C    CARTESIAN X     1.972425     -0.374905  KCAL/ANGSTROM
     20          7  C    CARTESIAN Y    -1.413470     -0.631226  KCAL/ANGSTROM
     21          7  C    CARTESIAN Z     0.035896     -0.202480  KCAL/ANGSTROM
     22          8  H    CARTESIAN X     1.052748      0.058065  KCAL/ANGSTROM
     23          8  H    CARTESIAN Y     1.893252     -0.144860  KCAL/ANGSTROM
     24          8  H    CARTESIAN Z     0.481068     -0.130489  KCAL/ANGSTROM
     25          9  H    CARTESIAN X     3.546663      0.082049  KCAL/ANGSTROM
     26          9  H    CARTESIAN Y     2.142061     -0.114454  KCAL/ANGSTROM
     27          9  H    CARTESIAN Z     0.662174      0.127346  KCAL/ANGSTROM
     28         10  H    CARTESIAN X     5.004750      0.305916  KCAL/ANGSTROM
     29         10  H    CARTESIAN Y     0.148623     -0.049668  KCAL/ANGSTROM
     30         10  H    CARTESIAN Z     0.580805     -0.098116  KCAL/ANGSTROM
     31         11  C    CARTESIAN X     1.603502      0.195042  KCAL/ANGSTROM
     32         11  C    CARTESIAN Y    -2.405610      0.146135  KCAL/ANGSTROM
     33         11  C    CARTESIAN Z    -1.060811     -0.232688  KCAL/ANGSTROM
     34         12  H    CARTESIAN X     1.658684     -0.095623  KCAL/ANGSTROM
     35         12  H    CARTESIAN Y    -2.260162     -0.405091  KCAL/ANGSTROM
     36         12  H    CARTESIAN Z     1.250806      0.469083  KCAL/ANGSTROM
     37         13  C    CARTESIAN X     0.143247      0.341383  KCAL/ANGSTROM
     38         13  C    CARTESIAN Y    -2.728156     -0.062736  KCAL/ANGSTROM
     39         13  C    CARTESIAN Z    -1.184803     -0.081160  KCAL/ANGSTROM
     40         14  H    CARTESIAN X     2.191648      0.276948  KCAL/ANGSTROM
     41         14  H    CARTESIAN Y    -3.345250      0.260490  KCAL/ANGSTROM
     42         14  H    CARTESIAN Z    -0.907389      0.007279  KCAL/ANGSTROM
     43         15  H    CARTESIAN X     1.923355     -0.091815  KCAL/ANGSTROM
     44         15  H    CARTESIAN Y    -1.940617      0.323202  KCAL/ANGSTROM
     45         15  H    CARTESIAN Z    -2.034978     -0.429391  KCAL/ANGSTROM
     46         16  C    CARTESIAN X    -0.330351      1.356328  KCAL/ANGSTROM
     47         16  C    CARTESIAN Y    -3.972997     -0.218545  KCAL/ANGSTROM
     48         16  C    CARTESIAN Z    -1.186614      0.125265  KCAL/ANGSTROM
     49         17  H    CARTESIAN X    -0.512648      0.006195  KCAL/ANGSTROM
     50         17  H    CARTESIAN Y    -1.860285     -0.016499  KCAL/ANGSTROM
     51         17  H    CARTESIAN Z    -1.306466     -0.004346  KCAL/ANGSTROM
     52         18  H    CARTESIAN X     0.307667     -0.126683  KCAL/ANGSTROM
     53         18  H    CARTESIAN Y    -4.845719      0.115806  KCAL/ANGSTROM
     54         18  H    CARTESIAN Z    -1.061554      0.009484  KCAL/ANGSTROM
     55         19  H    CARTESIAN X    -1.392735     -1.497140  KCAL/ANGSTROM
     56         19  H    CARTESIAN Y    -4.187697     -0.304805  KCAL/ANGSTROM
     57         19  H    CARTESIAN Z    -1.298345      0.080186  KCAL/ANGSTROM
     58         20  O    CARTESIAN X     1.240046      0.406818  KCAL/ANGSTROM
     59         20  O    CARTESIAN Y    -3.279054     -0.076950  KCAL/ANGSTROM
     60         20  O    CARTESIAN Z     1.832167     -0.075630  KCAL/ANGSTROM
     61         21  C    CARTESIAN X    -0.051189     -0.264899  KCAL/ANGSTROM
     62         21  C    CARTESIAN Y    -3.353686     -0.147883  KCAL/ANGSTROM
     63         21  C    CARTESIAN Z     1.978303     -0.062283  KCAL/ANGSTROM
     64         22  C    CARTESIAN X    -0.646393     -0.230040  KCAL/ANGSTROM
     65         22  C    CARTESIAN Y    -4.659357      0.009450  KCAL/ANGSTROM
     66         22  C    CARTESIAN Z     1.838625     -0.113230  KCAL/ANGSTROM
     67         23  C    CARTESIAN X    -2.005480     -0.458591  KCAL/ANGSTROM
     68         23  C    CARTESIAN Y    -4.783172     -0.099748  KCAL/ANGSTROM
     69         23  C    CARTESIAN Z     1.748973     -0.004205  KCAL/ANGSTROM
     70         24  C    CARTESIAN X    -2.855677     -0.243683  KCAL/ANGSTROM
     71         24  C    CARTESIAN Y    -3.635472      0.102693  KCAL/ANGSTROM
     72         24  C    CARTESIAN Z     1.815540      0.245114  KCAL/ANGSTROM
     73         25  C    CARTESIAN X    -2.317013     -0.149586  KCAL/ANGSTROM
     74         25  C    CARTESIAN Y    -2.405487     -0.267925  KCAL/ANGSTROM
     75         25  C    CARTESIAN Z     2.077839      0.392061  KCAL/ANGSTROM
     76         26  C    CARTESIAN X    -0.892128     -0.709369  KCAL/ANGSTROM
     77         26  C    CARTESIAN Y    -2.203002      0.394940  KCAL/ANGSTROM
     78         26  C    CARTESIAN Z     2.211049      0.335350  KCAL/ANGSTROM
     79         27  H    CARTESIAN X     0.025251     -0.189484  KCAL/ANGSTROM
     80         27  H    CARTESIAN Y    -5.513610      0.155746  KCAL/ANGSTROM
     81         27  H    CARTESIAN Z     1.783415     -0.074434  KCAL/ANGSTROM
     82         28  H    CARTESIAN X    -2.469568     -0.091641  KCAL/ANGSTROM
     83         28  H    CARTESIAN Y    -5.764104      0.044185  KCAL/ANGSTROM
     84         28  H    CARTESIAN Z     1.619542      0.010069  KCAL/ANGSTROM
     85         29  H    CARTESIAN X    -3.927102     -0.083800  KCAL/ANGSTROM
     86         29  H    CARTESIAN Y    -3.768899      0.026905  KCAL/ANGSTROM
     87         29  H    CARTESIAN Z     1.689736      0.154922  KCAL/ANGSTROM
     88         30  H    CARTESIAN X    -2.963818     -0.128096  KCAL/ANGSTROM
     89         30  H    CARTESIAN Y    -1.532480      0.084561  KCAL/ANGSTROM
     90         30  H    CARTESIAN Z     2.204444      0.190503  KCAL/ANGSTROM
     91         31  C    CARTESIAN X    -0.520116     -0.207428  KCAL/ANGSTROM
     92         31  C    CARTESIAN Y    -1.205789     -0.161956  KCAL/ANGSTROM
     93         31  C    CARTESIAN Z     3.303438      0.398165  KCAL/ANGSTROM
     94         32  H    CARTESIAN X    -0.580487      0.072012  KCAL/ANGSTROM
     95         32  H    CARTESIAN Y    -1.365374     -0.164968  KCAL/ANGSTROM
     96         32  H    CARTESIAN Z     1.001212      0.376424  KCAL/ANGSTROM
     97         33  C    CARTESIAN X     0.943594     -0.289884  KCAL/ANGSTROM
     98         33  C    CARTESIAN Y    -0.904099     -0.101462  KCAL/ANGSTROM
     99         33  C    CARTESIAN Z     3.437667      0.096585  KCAL/ANGSTROM
    100         34  H    CARTESIAN X    -0.855791      0.175427  KCAL/ANGSTROM
    101         34  H    CARTESIAN Y    -1.655575     -0.103376  KCAL/ANGSTROM
    102         34  H    CARTESIAN Z     4.278130      0.024749  KCAL/ANGSTROM
    103         35  H    CARTESIAN X    -1.093293     -0.129363  KCAL/ANGSTROM
    104         35  H    CARTESIAN Y    -0.259035     -0.057885  KCAL/ANGSTROM
    105         35  H    CARTESIAN Z     3.134399      0.526357  KCAL/ANGSTROM
    106         36  C    CARTESIAN X     1.434032      0.461105  KCAL/ANGSTROM
    107         36  C    CARTESIAN Y     0.334226      0.472055  KCAL/ANGSTROM
    108         36  C    CARTESIAN Z     3.446178     -0.060321  KCAL/ANGSTROM
    109         37  H    CARTESIAN X     1.587574     -0.064937  KCAL/ANGSTROM
    110         37  H    CARTESIAN Y    -1.780282      0.168031  KCAL/ANGSTROM
    111         37  H    CARTESIAN Z     3.561154     -0.024740  KCAL/ANGSTROM
    112         38  H    CARTESIAN X     0.807625     -0.232197  KCAL/ANGSTROM
    113         38  H    CARTESIAN Y     1.215903     -0.130247  KCAL/ANGSTROM
    114         38  H    CARTESIAN Z     3.321179      0.010454  KCAL/ANGSTROM
    115         39  H    CARTESIAN X     2.496120     -0.854227  KCAL/ANGSTROM
    116         39  H    CARTESIAN Y     0.532360     -0.427538  KCAL/ANGSTROM
    117         39  H    CARTESIAN Z     3.563580     -0.166310  KCAL/ANGSTROM
    118         40  H    CARTESIAN X     4.044763      0.221840  KCAL/ANGSTROM
    119         40  H    CARTESIAN Y    -2.083690     -0.117322  KCAL/ANGSTROM
    120         40  H    CARTESIAN Z     0.044476     -0.081673  KCAL/ANGSTROM




   ATOM   CHEMICAL          X               Y               Z
  NUMBER   SYMBOL      (ANGSTROMS)     (ANGSTROMS)     (ANGSTROMS)
 
     1       O         -0.16092364  *  -0.34307580  *   0.41140330  *
     2       C          1.13000710  *  -0.26523072  *   0.27269457  *
     3       C          1.72450506  *   1.03921408  *   0.42488359  *
     4       C          3.08329235  *   1.16235539  *   0.52203802  *
     5       C          3.93353510  *   0.01589728  *   0.44927093  *
     6       C          3.39680348  *  -1.21228294  *   0.17503221  *
     7       C          1.97242453  *  -1.41346956  *   0.03589631  *
     8       H          1.05274758  *   1.89325172  *   0.48106761  *
     9       H          3.54666281  *   2.14206128  *   0.66217377  *
    10       H          5.00474956  *   0.14862317  *   0.58080538  *
    11       C          1.60350156  *  -2.40560992  *  -1.06081076  *
    12       H          1.65868404  *  -2.26016180  *   1.25080574  *
    13       C          0.14324660  *  -2.72815644  *  -1.18480261  *
    14       H          2.19164768  *  -3.34525031  *  -0.90738948  *
    15       H          1.92335545  *  -1.94061701  *  -2.03497781  *
    16       C         -0.33035139  *  -3.97299722  *  -1.18661374  *
    17       H         -0.51264766  *  -1.86028472  *  -1.30646569  *
    18       H          0.30766663  *  -4.84571853  *  -1.06155370  *
    19       H         -1.39273540  *  -4.18769688  *  -1.29834494  *
    20       O          1.24004567  *  -3.27905411  *   1.83216743  *
    21       C         -0.05118930  *  -3.35368596  *   1.97830283  *
    22       C         -0.64639267  *  -4.65935684  *   1.83862496  *
    23       C         -2.00548019  *  -4.78317196  *   1.74897349  *
    24       C         -2.85567651  *  -3.63547221  *   1.81553969  *
    25       C         -2.31701275  *  -2.40548704  *   2.07783910  *
    26       C         -0.89212783  *  -2.20300218  *   2.21104858  *
    27       H          0.02525070  *  -5.51361006  *   1.78341464  *
    28       H         -2.46956832  *  -5.76410354  *   1.61954176  *
    29       H         -3.92710234  *  -3.76889862  *   1.68973645  *
    30       H         -2.96381813  *  -1.53248025  *   2.20444435  *
    31       C         -0.52011554  *  -1.20578932  *   3.30343777  *
    32       H         -0.58048732  *  -1.36537403  *   1.00121181  *
    33       C          0.94359434  *  -0.90409944  *   3.43766724  *
    34       H         -0.85579107  *  -1.65557539  *   4.27812981  *
    35       H         -1.09329261  *  -0.25903525  *   3.13439903  *
    36       C          1.43403216  *   0.33422596  *   3.44617815  *
    37       H          1.58757385  *  -1.78028178  *   3.56115384  *
    38       H          0.80762490  *   1.21590316  *   3.32117867  *
    39       H          2.49611989  *   0.53235973  *   3.56357974  *
    40       H          4.04476317  *  -2.08368982  *   0.04447561  *

                             CARTESIAN COORDINATES

   1    O       -0.160923642    -0.343075797     0.411403304
   2    C        1.130007096    -0.265230716     0.272694568
   3    C        1.724505063     1.039214078     0.424883588
   4    C        3.083292349     1.162355388     0.522038024
   5    C        3.933535102     0.015897277     0.449270931
   6    C        3.396803476    -1.212282938     0.175032213
   7    C        1.972424532    -1.413469555     0.035896309
   8    H        1.052747577     1.893251724     0.481067611
   9    H        3.546662810     2.142061282     0.662173771
  10    H        5.004749563     0.148623165     0.580805380
  11    C        1.603501561    -2.405609919    -1.060810762
  12    H        1.658684036    -2.260161796     1.250805743
  13    C        0.143246603    -2.728156436    -1.184802608
  14    H        2.191647680    -3.345250310    -0.907389481
  15    H        1.923355451    -1.940617006    -2.034977810
  16    C       -0.330351387    -3.972997222    -1.186613741
  17    H       -0.512647655    -1.860284725    -1.306465689
  18    H        0.307666630    -4.845718528    -1.061553704
  19    H       -1.392735396    -4.187696875    -1.298344938
  20    O        1.240045669    -3.279054114     1.832167426
  21    C       -0.051189304    -3.353685958     1.978302829
  22    C       -0.646392674    -4.659356843     1.838624958
  23    C       -2.005480191    -4.783171959     1.748973487
  24    C       -2.855676515    -3.635472211     1.815539686
  25    C       -2.317012754    -2.405487045     2.077839098
  26    C       -0.892127831    -2.203002183     2.211048580
  27    H        0.025250701    -5.513610059     1.783414641
  28    H       -2.469568322    -5.764103545     1.619541762
  29    H       -3.927102344    -3.768898625     1.689736455
  30    H       -2.963818133    -1.532480252     2.204444351
  31    C       -0.520115543    -1.205789324     3.303437767
  32    H       -0.580487322    -1.365374034     1.001211815
  33    C        0.943594338    -0.904099443     3.437667241
  34    H       -0.855791074    -1.655575391     4.278129813
  35    H       -1.093292606    -0.259035253     3.134399029
  36    C        1.434032163     0.334225963     3.446178155
  37    H        1.587573852    -1.780281784     3.561153835
  38    H        0.807624905     1.215903162     3.321178671
  39    H        2.496119893     0.532359732     3.563579739
  40    H        4.044763170    -2.083689817     0.044475609


           Empirical Formula: C18 H20 O2  =    40 atoms



      MOLECULAR POINT GROUP   :   Ci  


                  EIGENVALUES  
 -31.06658 -30.29170 -29.75027 -29.41871 -28.07188 -27.97134 -26.44583 -26.19291
 -25.56718 -25.22337 -23.65656 -23.62260 -21.58036 -21.39300 -21.35405 -20.58256
 -19.42036 -19.38572 -18.02491 -17.59959 -17.19014 -16.65849 -16.32552 -16.14752
 -15.95459 -15.59990 -15.27813 -14.97461 -14.55683 -14.53009 -14.36727 -14.30632
 -14.04527 -13.96283 -13.46516 -13.15115 -13.11393 -12.96079 -12.85874 -12.75800
 -12.31807 -12.13928 -11.87364 -11.81991 -11.37846 -11.14431 -10.41665 -10.16502
  -9.87576  -9.78679  -9.04530  -8.75261  -0.78387  -0.36662   0.43093   0.46840
   1.17111   1.19327   1.80262   2.08218   2.79228   3.07466   3.61138   3.65031
   3.70083   3.76266   4.16394   4.20157   4.33743   4.37137   4.43041   4.57768
   4.71613   4.88747   4.98795   5.02181   5.08976   5.20276   5.34986   5.41010
   5.45316   5.48479   5.65708   5.68496   5.77150   5.81609   5.86544   5.88199
   6.05082   6.05693   6.07769   6.09227   6.12357   6.15899   6.23185   6.26263
   6.48375   6.48739   6.58218   6.59568


              NET ATOMIC CHARGES AND DIPOLE CONTRIBUTIONS

  ATOM NO.   TYPE          CHARGE      No. of ELECS.   s-Pop       p-Pop       
    1          O          -0.593068        6.5931     1.84136     4.75170
    2          C           0.573120        3.4269     1.09339     2.33349
    3          C          -0.412057        4.4121     1.11740     3.29465
    4          C           0.077829        3.9222     1.10846     2.81371
    5          C          -0.358014        4.3580     1.10385     3.25417
    6          C           0.068969        3.9310     1.11207     2.81896
    7          C          -0.496571        4.4966     1.11912     3.37746
    8          H           0.189762        0.8102     0.81024
    9          H           0.133855        0.8661     0.86615
   10          H           0.166326        0.8337     0.83367
   11          C          -0.197868        4.1979     1.07890     3.11897
   12          H           0.425451        0.5745     0.57455
   13          C          -0.121205        4.1212     1.11447     3.00674
   14          H           0.147036        0.8530     0.85296
   15          H           0.146133        0.8539     0.85387
   16          C          -0.350540        4.3505     1.12346     3.22708
   17          H           0.151783        0.8482     0.84822
   18          H           0.154834        0.8452     0.84517
   19          H           0.152481        0.8475     0.84752
   20          O          -0.586975        6.5870     1.84074     4.74624
   21          C           0.573584        3.4264     1.09428     2.33214
   22          C          -0.411935        4.4119     1.11730     3.29463
   23          C           0.079384        3.9206     1.10877     2.81184
   24          C          -0.357642        4.3576     1.10407     3.25357
   25          C           0.070090        3.9299     1.11222     2.81769
   26          C          -0.496671        4.4967     1.11910     3.37757
   27          H           0.190371        0.8096     0.80963
   28          H           0.134308        0.8657     0.86569
   29          H           0.166793        0.8332     0.83321
   30          H           0.135588        0.8644     0.86441
   31          C          -0.197407        4.1974     1.07899     3.11842
   32          H           0.425320        0.5747     0.57468
   33          C          -0.122983        4.1230     1.11429     3.00869
   34          H           0.146023        0.8540     0.85398
   35          H           0.147942        0.8521     0.85206
   36          C          -0.348104        4.3481     1.12323     3.22487
   37          H           0.151674        0.8483     0.84833
   38          H           0.155010        0.8450     0.84499
   39          H           0.152378        0.8476     0.84762
   40          H           0.134997        0.8650     0.86500
 DIPOLE           X         Y         Z       TOTAL
 POINT-CHG.    -0.058    -0.073     0.088     0.128
 HYBRID         0.007     0.001    -0.007     0.010
 SUM           -0.051    -0.072     0.081     0.120


          ATOMIC ORBITAL ELECTRON POPULATIONS

     Atom    s        px        py        pz   
    1  O   1.84136   1.32442   1.72823   1.69905
    2  C   1.09339   0.77556   0.89314   0.66480
    3  C   1.11740   1.04230   1.08045   1.17190
    4  C   1.10846   0.95991   1.02362   0.83019
    5  C   1.10385   1.08746   1.00177   1.16494
    6  C   1.11207   0.96851   1.00310   0.84736
    7  C   1.11912   1.02410   1.11485   1.23850
    8  H   0.81024
    9  H   0.86615
   10  H   0.83367
   11  C   1.07890   1.02112   1.06585   1.03200
   12  H   0.57455
   13  C   1.11447   1.00061   1.03350   0.97263
   14  H   0.85296
   15  H   0.85387
   16  C   1.12346   1.12722   1.05689   1.04297
   17  H   0.84822
   18  H   0.84517
   19  H   0.84752
   20  O   1.84074   1.32450   1.72357   1.69817
   21  C   1.09428   0.77484   0.89442   0.66288
   22  C   1.11730   1.04227   1.07960   1.17276
   23  C   1.10877   0.95989   1.02419   0.82776
   24  C   1.10407   1.08764   1.00132   1.16460
   25  C   1.11222   0.96844   1.00387   0.84538
   26  C   1.11910   1.02402   1.11328   1.24028
   27  H   0.80963
   28  H   0.86569
   29  H   0.83321
   30  H   0.86441
   31  C   1.07899   1.02085   1.06553   1.03203
   32  H   0.57468
   33  C   1.11429   0.99869   1.03540   0.97461
   34  H   0.85398
   35  H   0.85206
   36  C   1.12323   1.12601   1.05773   1.04113
   37  H   0.84833
   38  H   0.84499
   39  H   0.84762
   40  H   0.86500

 **********************
 *                    *
 * JOB ENDED NORMALLY *
 *                    *
 **********************



 TOTAL JOB TIME:           115.18 SECONDS

 == MOPAC DONE ==
