 *******************************************************************************
 ** Cite this program as: MOPAC2016, Version: 22.066W, James J. P. Stewart,   **
 **                           web-site: HTTP://OpenMOPAC.net.                 **
 *******************************************************************************
 **                                                                           **
 **                                MOPAC2016                                  **
 **                                                                           **
 *******************************************************************************

                              PM6-D3H4 CALCULATION RESULTS

 *******************************************************************************
 *  CALCULATION DONE:                                Mon May  9 22:54:40 2022  *
 *  PM6-D3H4   - CORRECT DISPERSION AND HYDROGEN BOND TERMS USING THE D3H4 METHOD
 *
 *
 *
 *                 CHARGE ON SYSTEM = 0
 *
 *
 *
 *  PRECISE    - TIGHTER CRITERIA TO BE USED
 *  TS         - USE EF ROUTINE FOR TS SEARCH
 *  T=         - A TIME OF 172800.0 SECONDS REQUESTED
 *  DUMP=N     - RESTART FILE WRITTEN EVERY 7200.0 SECONDS REQUESTED
 *******************************************************************************
PM6-D3H4 CHARGE=0 PRECISE TS


   ATOM   CHEMICAL          X               Y               Z
  NUMBER   SYMBOL      (ANGSTROMS)     (ANGSTROMS)     (ANGSTROMS)
 
     1       O         -0.16092364  *  -0.34307580  *   0.41140330  *
     2       C          1.13000710  *  -0.26523072  *   0.27269457  *
     3       C          1.72450506  *   1.03921408  *   0.42488359  *
     4       C          3.08329235  *   1.16235539  *   0.52203802  *
     5       C          3.93353510  *   0.01589728  *   0.44927093  *
     6       C          3.39680348  *  -1.21228294  *   0.17503221  *
     7       C          1.97242453  *  -1.41346956  *   0.03589631  *
     8       H          1.05274758  *   1.89325172  *   0.48106761  *
     9       H          3.54666281  *   2.14206128  *   0.66217377  *
    10       H          5.00474956  *   0.14862317  *   0.58080538  *
    11       C          1.60350156  *  -2.40560992  *  -1.06081076  *
    12       H          1.65868404  *  -2.26016180  *   1.25080574  *
    13       C          0.14324660  *  -2.72815644  *  -1.18480261  *
    14       H          2.19164768  *  -3.34525031  *  -0.90738948  *
    15       H          1.92335545  *  -1.94061701  *  -2.03497781  *
    16       C         -0.33035139  *  -3.97299722  *  -1.18661374  *
    17       H         -0.51264766  *  -1.86028472  *  -1.30646569  *
    18       H          0.30766663  *  -4.84571853  *  -1.06155370  *
    19       H         -1.39273540  *  -4.18769688  *  -1.29834494  *
    20       O          1.24004567  *  -3.27905411  *   1.83216743  *
    21       C         -0.05118930  *  -3.35368596  *   1.97830283  *
    22       C         -0.64639267  *  -4.65935684  *   1.83862496  *
    23       C         -2.00548019  *  -4.78317196  *   1.74897349  *
    24       C         -2.85567651  *  -3.63547221  *   1.81553969  *
    25       C         -2.31701275  *  -2.40548704  *   2.07783910  *
    26       C         -0.89212783  *  -2.20300218  *   2.21104858  *
    27       H          0.02525070  *  -5.51361006  *   1.78341464  *
    28       H         -2.46956832  *  -5.76410354  *   1.61954176  *
    29       H         -3.92710234  *  -3.76889862  *   1.68973645  *
    30       H         -2.96381813  *  -1.53248025  *   2.20444435  *
    31       C         -0.52011554  *  -1.20578932  *   3.30343777  *
    32       H         -0.58048732  *  -1.36537403  *   1.00121181  *
    33       C          0.94359434  *  -0.90409944  *   3.43766724  *
    34       H         -0.85579107  *  -1.65557539  *   4.27812981  *
    35       H         -1.09329261  *  -0.25903525  *   3.13439903  *
    36       C          1.43403216  *   0.33422596  *   3.44617815  *
    37       H          1.58757385  *  -1.78028178  *   3.56115384  *
    38       H          0.80762490  *   1.21590316  *   3.32117867  *
    39       H          2.49611989  *   0.53235973  *   3.56357974  *
    40       H          4.04476317  *  -2.08368982  *   0.04447561  *
 


          CARTESIAN COORDINATES 

    NO.       ATOM           X           Y           Z

     1         O         -0.1609     -0.3431      0.4114
     2         C          1.1300     -0.2652      0.2727
     3         C          1.7245      1.0392      0.4249
     4         C          3.0833      1.1624      0.5220
     5         C          3.9335      0.0159      0.4493
     6         C          3.3968     -1.2123      0.1750
     7         C          1.9724     -1.4135      0.0359
     8         H          1.0527      1.8933      0.4811
     9         H          3.5467      2.1421      0.6622
    10         H          5.0047      0.1486      0.5808
    11         C          1.6035     -2.4056     -1.0608
    12         H          1.6587     -2.2602      1.2508
    13         C          0.1432     -2.7282     -1.1848
    14         H          2.1916     -3.3453     -0.9074
    15         H          1.9234     -1.9406     -2.0350
    16         C         -0.3304     -3.9730     -1.1866
    17         H         -0.5126     -1.8603     -1.3065
    18         H          0.3077     -4.8457     -1.0616
    19         H         -1.3927     -4.1877     -1.2983
    20         O          1.2400     -3.2791      1.8322
    21         C         -0.0512     -3.3537      1.9783
    22         C         -0.6464     -4.6594      1.8386
    23         C         -2.0055     -4.7832      1.7490
    24         C         -2.8557     -3.6355      1.8155
    25         C         -2.3170     -2.4055      2.0778
    26         C         -0.8921     -2.2030      2.2110
    27         H          0.0253     -5.5136      1.7834
    28         H         -2.4696     -5.7641      1.6195
    29         H         -3.9271     -3.7689      1.6897
    30         H         -2.9638     -1.5325      2.2044
    31         C         -0.5201     -1.2058      3.3034
    32         H         -0.5805     -1.3654      1.0012
    33         C          0.9436     -0.9041      3.4377
    34         H         -0.8558     -1.6556      4.2781
    35         H         -1.0933     -0.2590      3.1344
    36         C          1.4340      0.3342      3.4462
    37         H          1.5876     -1.7803      3.5612
    38         H          0.8076      1.2159      3.3212
    39         H          2.4961      0.5324      3.5636
    40         H          4.0448     -2.0837      0.0445

 General Reference for PM6:
 "Optimization of Parameters for Semiempirical Methods V: Modification of NDDO Approximations
 and Application to 70 Elements", J. J. P. Stewart, J. Mol. Mod., 13, 1173-1213 (2007)
 URL: https://link.springer.com/article/10.1007/s00894-007-0233-4

           Empirical Formula: C18 H20 O2  =    40 atoms



      MOLECULAR POINT GROUP   :   Ci  


      RHF CALCULATION, NO. OF DOUBLY OCCUPIED LEVELS = 52


          Transition state refinement using EF

          HESSIAN CALCULATED NUMERICALLY

 CYCLE:     1 TIME:   4.445 TIME LEFT:  2.00D  GRAD.:    26.349 HEAT:  21.36738
 CYCLE:     2 TIME:   0.039 TIME LEFT:  2.00D  GRAD.:     2.635 HEAT:  21.85610
 CYCLE:     3 TIME:   0.047 TIME LEFT:  2.00D  GRAD.:     3.512 HEAT:  21.62364
 CYCLE:     4 TIME:   0.047 TIME LEFT:  2.00D  GRAD.:     6.078 HEAT:  21.35878
 CYCLE:     5 TIME:   0.047 TIME LEFT:  2.00D  GRAD.:     5.727 HEAT:  21.15198
 CYCLE:     6 TIME:   0.047 TIME LEFT:  2.00D  GRAD.:    13.609 HEAT:  21.13008
 CYCLE:     7 TIME:   0.094 TIME LEFT:  2.00D  GRAD.:    10.931 HEAT:  21.05207
 CYCLE:     8 TIME:   0.047 TIME LEFT:  2.00D  GRAD.:     7.497 HEAT:  20.93795
 CYCLE:     9 TIME:   0.047 TIME LEFT:  2.00D  GRAD.:    10.966 HEAT:  20.92421
 CYCLE:    10 TIME:   0.047 TIME LEFT:  2.00D  GRAD.:     7.965 HEAT:  20.87375
 CYCLE:    11 TIME:   0.047 TIME LEFT:  2.00D  GRAD.:     3.898 HEAT:  20.82473
 CYCLE:    12 TIME:   0.039 TIME LEFT:  2.00D  GRAD.:     2.937 HEAT:  20.80337
 CYCLE:    13 TIME:   0.039 TIME LEFT:  2.00D  GRAD.:     5.158 HEAT:  20.79828
 CYCLE:    14 TIME:   0.078 TIME LEFT:  2.00D  GRAD.:     4.361 HEAT:  20.78736
 CYCLE:    15 TIME:   0.047 TIME LEFT:  2.00D  GRAD.:     3.008 HEAT:  20.77431
 CYCLE:    16 TIME:   0.039 TIME LEFT:  2.00D  GRAD.:     2.721 HEAT:  20.76637
 CYCLE:    17 TIME:   0.047 TIME LEFT:  2.00D  GRAD.:     2.999 HEAT:  20.76007
 CYCLE:    18 TIME:   0.047 TIME LEFT:  2.00D  GRAD.:     3.646 HEAT:  20.75489
 CYCLE:    19 TIME:   0.039 TIME LEFT:  2.00D  GRAD.:     4.333 HEAT:  20.75125
 CYCLE:    20 TIME:   0.031 TIME LEFT:  2.00D  GRAD.:     3.984 HEAT:  20.74298
 CYCLE:    21 TIME:   0.047 TIME LEFT:  2.00D  GRAD.:     3.446 HEAT:  20.73340
 CYCLE:    22 TIME:   0.039 TIME LEFT:  2.00D  GRAD.:     3.557 HEAT:  20.72640
 CYCLE:    23 TIME:   0.047 TIME LEFT:  2.00D  GRAD.:     4.012 HEAT:  20.72040
 CYCLE:    24 TIME:   0.039 TIME LEFT:  2.00D  GRAD.:     3.774 HEAT:  20.71214
 CYCLE:    25 TIME:   0.039 TIME LEFT:  2.00D  GRAD.:     3.246 HEAT:  20.70294
 CYCLE:    26 TIME:   0.047 TIME LEFT:  2.00D  GRAD.:     2.847 HEAT:  20.69419
 CYCLE:    27 TIME:   0.047 TIME LEFT:  2.00D  GRAD.:     2.908 HEAT:  20.68682
 CYCLE:    28 TIME:   0.039 TIME LEFT:  2.00D  GRAD.:     3.315 HEAT:  20.68011
 CYCLE:    29 TIME:   0.047 TIME LEFT:  2.00D  GRAD.:     3.488 HEAT:  20.67310
 CYCLE:    30 TIME:   0.039 TIME LEFT:  2.00D  GRAD.:     3.386 HEAT:  20.66481
 CYCLE:    31 TIME:   0.039 TIME LEFT:  2.00D  GRAD.:     3.095 HEAT:  20.65628
 CYCLE:    32 TIME:   0.039 TIME LEFT:  2.00D  GRAD.:     3.002 HEAT:  20.64799
 CYCLE:    33 TIME:   0.047 TIME LEFT:  2.00D  GRAD.:     3.073 HEAT:  20.64032
 CYCLE:    34 TIME:   0.047 TIME LEFT:  2.00D  GRAD.:     3.656 HEAT:  20.63376
 CYCLE:    35 TIME:   0.039 TIME LEFT:  2.00D  GRAD.:     4.138 HEAT:  20.62597
 CYCLE:    36 TIME:   0.031 TIME LEFT:  2.00D  GRAD.:     4.771 HEAT:  20.61863
 CYCLE:    37 TIME:   0.047 TIME LEFT:  2.00D  GRAD.:     5.343 HEAT:  20.61121
 CYCLE:    38 TIME:   0.039 TIME LEFT:  2.00D  GRAD.:     6.277 HEAT:  20.60518
 CYCLE:    39 TIME:   0.047 TIME LEFT:  2.00D  GRAD.:     6.597 HEAT:  20.59852
 CYCLE:    40 TIME:   0.039 TIME LEFT:  2.00D  GRAD.:     5.940 HEAT:  20.58772
 CYCLE:    41 TIME:   0.047 TIME LEFT:  2.00D  GRAD.:     4.490 HEAT:  20.57568
 CYCLE:    42 TIME:   0.039 TIME LEFT:  2.00D  GRAD.:     3.800 HEAT:  20.56521
 CYCLE:    43 TIME:   0.039 TIME LEFT:  2.00D  GRAD.:     3.667 HEAT:  20.55645
 CYCLE:    44 TIME:   0.031 TIME LEFT:  2.00D  GRAD.:     4.354 HEAT:  20.54956
 CYCLE:    45 TIME:   0.039 TIME LEFT:  2.00D  GRAD.:     4.777 HEAT:  20.54203
 CYCLE:    46 TIME:   0.047 TIME LEFT:  2.00D  GRAD.:     4.969 HEAT:  20.53332
 CYCLE:    47 TIME:   0.039 TIME LEFT:  2.00D  GRAD.:     5.074 HEAT:  20.52494
 CYCLE:    48 TIME:   0.039 TIME LEFT:  2.00D  GRAD.:     5.363 HEAT:  20.51651
 CYCLE:    49 TIME:   0.031 TIME LEFT:  2.00D  GRAD.:     4.664 HEAT:  20.50492
 CYCLE:    50 TIME:   0.047 TIME LEFT:  2.00D  GRAD.:     4.039 HEAT:  20.49328
 CYCLE:    51 TIME:   0.047 TIME LEFT:  2.00D  GRAD.:     3.509 HEAT:  20.48255
 CYCLE:    52 TIME:   0.047 TIME LEFT:  2.00D  GRAD.:     3.485 HEAT:  20.47306
 CYCLE:    53 TIME:   0.047 TIME LEFT:  2.00D  GRAD.:     3.687 HEAT:  20.46534
 CYCLE:    54 TIME:   0.047 TIME LEFT:  2.00D  GRAD.:     3.986 HEAT:  20.45585
 CYCLE:    55 TIME:   0.039 TIME LEFT:  2.00D  GRAD.:     4.444 HEAT:  20.44653
 CYCLE:    56 TIME:   0.047 TIME LEFT:  2.00D  GRAD.:     5.148 HEAT:  20.43734
 CYCLE:    57 TIME:   0.031 TIME LEFT:  2.00D  GRAD.:     5.167 HEAT:  20.42822
 CYCLE:    58 TIME:   0.047 TIME LEFT:  2.00D  GRAD.:     4.523 HEAT:  20.41674
 CYCLE:    59 TIME:   0.039 TIME LEFT:  2.00D  GRAD.:     3.384 HEAT:  20.40424
 CYCLE:    60 TIME:   0.039 TIME LEFT:  2.00D  GRAD.:     3.234 HEAT:  20.39393
 CYCLE:    61 TIME:   0.047 TIME LEFT:  2.00D  GRAD.:     4.164 HEAT:  20.38673
 CYCLE:    62 TIME:   0.047 TIME LEFT:  2.00D  GRAD.:     4.795 HEAT:  20.37909
 CYCLE:    63 TIME:   0.039 TIME LEFT:  2.00D  GRAD.:     4.443 HEAT:  20.36732
 CYCLE:    64 TIME:   0.047 TIME LEFT:  2.00D  GRAD.:     3.538 HEAT:  20.35451
 CYCLE:    65 TIME:   0.047 TIME LEFT:  2.00D  GRAD.:     3.472 HEAT:  20.34436
 CYCLE:    66 TIME:   0.039 TIME LEFT:  2.00D  GRAD.:     4.405 HEAT:  20.33833
 CYCLE:    67 TIME:   0.039 TIME LEFT:  2.00D  GRAD.:     5.490 HEAT:  20.33377
 CYCLE:    68 TIME:   0.031 TIME LEFT:  2.00D  GRAD.:     3.244 HEAT:  20.32029
 CYCLE:    69 TIME:   0.047 TIME LEFT:  2.00D  GRAD.:     2.149 HEAT:  20.31293
 CYCLE:    70 TIME:   0.039 TIME LEFT:  2.00D  GRAD.:     1.752 HEAT:  20.30767
 CYCLE:    71 TIME:   0.039 TIME LEFT:  2.00D  GRAD.:     1.678 HEAT:  20.30284
 CYCLE:    72 TIME:   0.031 TIME LEFT:  2.00D  GRAD.:     0.755 HEAT:  20.29718
 CYCLE:    73 TIME:   0.047 TIME LEFT:  2.00D  GRAD.:     1.515 HEAT:  20.29065
 CYCLE:    74 TIME:   0.039 TIME LEFT:  2.00D  GRAD.:     0.418 HEAT:  20.28521
 CYCLE:    75 TIME:   0.039 TIME LEFT:  2.00D  GRAD.:     2.486 HEAT:  20.27802
 CYCLE:    76 TIME:   0.047 TIME LEFT:  2.00D  GRAD.:     3.713 HEAT:  20.25810
 CYCLE:    77 TIME:   0.047 TIME LEFT:  2.00D  GRAD.:     3.890 HEAT:  20.22700
 CYCLE:    78 TIME:   0.047 TIME LEFT:  2.00D  GRAD.:     4.340 HEAT:  20.21157
 CYCLE:    79 TIME:   0.047 TIME LEFT:  2.00D  GRAD.:     4.738 HEAT:  20.19362
 CYCLE:    80 TIME:   0.125 TIME LEFT:  2.00D  GRAD.:     4.729 HEAT:  20.19017
 CYCLE:    81 TIME:   0.047 TIME LEFT:  2.00D  GRAD.:     5.554 HEAT:  20.18776
 CYCLE:    82 TIME:   0.039 TIME LEFT:  2.00D  GRAD.:     2.843 HEAT:  20.17840
 CYCLE:    83 TIME:   0.039 TIME LEFT:  2.00D  GRAD.:     2.499 HEAT:  20.17585
 CYCLE:    84 TIME:   0.039 TIME LEFT:  2.00D  GRAD.:     0.857 HEAT:  20.17291
 CYCLE:    85 TIME:   0.047 TIME LEFT:  2.00D  GRAD.:     2.328 HEAT:  20.17056
 CYCLE:    86 TIME:   0.047 TIME LEFT:  2.00D  GRAD.:     5.010 HEAT:  20.16846
 CYCLE:    87 TIME:   0.039 TIME LEFT:  2.00D  GRAD.:     5.162 HEAT:  20.15727
 CYCLE:    88 TIME:   0.117 TIME LEFT:  2.00D  GRAD.:     6.696 HEAT:  20.15627
 CYCLE:    89 TIME:   0.047 TIME LEFT:  2.00D  GRAD.:     4.085 HEAT:  20.14622
 CYCLE:    90 TIME:   0.039 TIME LEFT:  2.00D  GRAD.:     2.565 HEAT:  20.14258
 CYCLE:    91 TIME:   0.031 TIME LEFT:  2.00D  GRAD.:     2.660 HEAT:  20.14140
 CYCLE:    92 TIME:   0.039 TIME LEFT:  2.00D  GRAD.:     0.828 HEAT:  20.13912
 CYCLE:    93 TIME:   0.031 TIME LEFT:  2.00D  GRAD.:     2.711 HEAT:  20.13850
 CYCLE:    94 TIME:   0.047 TIME LEFT:  2.00D  GRAD.:     5.826 HEAT:  20.14098
 CYCLE:    95 TIME:   0.258 TIME LEFT:  2.00D  GRAD.:     4.753 HEAT:  20.13775
 CYCLE:    95 TIME:   0.047 TIME LEFT:  2.00D  GRAD.:     1.938 HEAT:  20.13535
 CYCLE:    96 TIME:   0.031 TIME LEFT:  2.00D  GRAD.:     1.940 HEAT:  20.13521
 CYCLE:    97 TIME:   0.039 TIME LEFT:  2.00D  GRAD.:     1.956 HEAT:  20.13484
 CYCLE:    98 TIME:   0.133 TIME LEFT:  2.00D  GRAD.:     4.738 HEAT:  20.14046
 CYCLE:    99 TIME:   0.039 TIME LEFT:  2.00D  GRAD.:     4.400 HEAT:  20.13902
 CYCLE:   100 TIME:   0.039 TIME LEFT:  2.00D  GRAD.:     6.323 HEAT:  20.14834
 CYCLE:   101 TIME:   0.047 TIME LEFT:  2.00D  GRAD.:     4.604 HEAT:  20.13919
 CYCLE:   102 TIME:   0.141 TIME LEFT:  2.00D  GRAD.:     1.838 HEAT:  20.13473
 CYCLE:   103 TIME:   0.031 TIME LEFT:  2.00D  GRAD.:     1.682 HEAT:  20.13358
 CYCLE:   104 TIME:   0.047 TIME LEFT:  2.00D  GRAD.:     1.680 HEAT:  20.13121
 CYCLE:   105 TIME:   0.039 TIME LEFT:  2.00D  GRAD.:     0.936 HEAT:  20.12949
 CYCLE:   106 TIME:   0.039 TIME LEFT:  2.00D  GRAD.:     0.822 HEAT:  20.12852
 CYCLE:   107 TIME:   0.039 TIME LEFT:  2.00D  GRAD.:     2.056 HEAT:  20.12910
 CYCLE:   108 TIME:   0.039 TIME LEFT:  2.00D  GRAD.:     3.684 HEAT:  20.13866
 CYCLE:   109 TIME:   0.133 TIME LEFT:  2.00D  GRAD.:     3.474 HEAT:  20.13662
 CYCLE:   110 TIME:   0.078 TIME LEFT:  2.00D  GRAD.:     2.199 HEAT:  20.13489
 CYCLE:   111 TIME:   0.039 TIME LEFT:  2.00D  GRAD.:     1.091 HEAT:  20.13517
 CYCLE:   112 TIME:   0.031 TIME LEFT:  2.00D  GRAD.:     2.575 HEAT:  20.13443
 CYCLE:   113 TIME:   0.047 TIME LEFT:  2.00D  GRAD.:     4.660 HEAT:  20.13617
 CYCLE:   114 TIME:   0.164 TIME LEFT:  2.00D  GRAD.:     5.077 HEAT:  20.13669
 CYCLE:   115 TIME:   0.047 TIME LEFT:  2.00D  GRAD.:     2.649 HEAT:  20.13362
 CYCLE:   116 TIME:   0.031 TIME LEFT:  2.00D  GRAD.:     3.992 HEAT:  20.13996
 CYCLE:   117 TIME:   0.047 TIME LEFT:  2.00D  GRAD.:     4.065 HEAT:  20.13616
 CYCLE:   118 TIME:   0.141 TIME LEFT:  2.00D  GRAD.:     2.481 HEAT:  20.13098
 CYCLE:   119 TIME:   0.023 TIME LEFT:  2.00D  GRAD.:     1.687 HEAT:  20.12963
 CYCLE:   120 TIME:   0.047 TIME LEFT:  2.00D  GRAD.:     0.775 HEAT:  20.12756
 CYCLE:   121 TIME:   0.039 TIME LEFT:  2.00D  GRAD.:     2.039 HEAT:  20.12719
 CYCLE:   122 TIME:   0.039 TIME LEFT:  2.00D  GRAD.:     3.392 HEAT:  20.13459
 CYCLE:   123 TIME:   0.117 TIME LEFT:  2.00D  GRAD.:     2.646 HEAT:  20.13384
 CYCLE:   124 TIME:   0.047 TIME LEFT:  2.00D  GRAD.:     1.388 HEAT:  20.13195
 CYCLE:   125 TIME:   0.039 TIME LEFT:  2.00D  GRAD.:     0.676 HEAT:  20.13211
 CYCLE:   126 TIME:   0.039 TIME LEFT:  2.00D  GRAD.:     1.590 HEAT:  20.13153
 CYCLE:   127 TIME:   0.047 TIME LEFT:  2.00D  GRAD.:     2.881 HEAT:  20.13217
 CYCLE:   128 TIME:   0.109 TIME LEFT:  2.00D  GRAD.:     4.288 HEAT:  20.13620
 CYCLE:   129 TIME:   0.047 TIME LEFT:  2.00D  GRAD.:     1.698 HEAT:  20.13535
 CYCLE:   130 TIME:   0.039 TIME LEFT:  2.00D  GRAD.:     5.540 HEAT:  20.13911
 CYCLE:   131 TIME:   0.078 TIME LEFT:  2.00D  GRAD.:     4.455 HEAT:  20.13776
 CYCLE:   132 TIME:   0.039 TIME LEFT:  2.00D  GRAD.:     3.090 HEAT:  20.13278
 CYCLE:   133 TIME:   0.039 TIME LEFT:  2.00D  GRAD.:     2.935 HEAT:  20.13257
 CYCLE:   134 TIME:   0.047 TIME LEFT:  2.00D  GRAD.:     1.723 HEAT:  20.12970
 CYCLE:   135 TIME:   0.047 TIME LEFT:  2.00D  GRAD.:     0.993 HEAT:  20.12834
 CYCLE:   136 TIME:   0.047 TIME LEFT:  2.00D  GRAD.:     1.118 HEAT:  20.12792
 CYCLE:   137 TIME:   0.039 TIME LEFT:  2.00D  GRAD.:     1.356 HEAT:  20.12990
 CYCLE:   138 TIME:   0.047 TIME LEFT:  2.00D  GRAD.:     2.573 HEAT:  20.12928
 CYCLE:   139 TIME:   0.047 TIME LEFT:  2.00D  GRAD.:     2.089 HEAT:  20.12615
 CYCLE:   140 TIME:   0.039 TIME LEFT:  2.00D  GRAD.:     1.343 HEAT:  20.12428
 CYCLE:   141 TIME:   0.047 TIME LEFT:  2.00D  GRAD.:     2.185 HEAT:  20.12481
 CYCLE:   142 TIME:   0.039 TIME LEFT:  2.00D  GRAD.:     1.244 HEAT:  20.12277
 CYCLE:   143 TIME:   0.047 TIME LEFT:  2.00D  GRAD.:     0.639 HEAT:  20.12214
 CYCLE:   144 TIME:   0.047 TIME LEFT:  2.00D  GRAD.:     1.592 HEAT:  20.12364
 CYCLE:   145 TIME:   0.031 TIME LEFT:  2.00D  GRAD.:     2.683 HEAT:  20.12536
 CYCLE:   146 TIME:   0.086 TIME LEFT:  2.00D  GRAD.:     2.280 HEAT:  20.12514
 CYCLE:   147 TIME:   0.047 TIME LEFT:  2.00D  GRAD.:     0.696 HEAT:  20.12452
 CYCLE:   148 TIME:   0.086 TIME LEFT:  2.00D  GRAD.:     1.743 HEAT:  20.12391
 CYCLE:   149 TIME:   0.047 TIME LEFT:  2.00D  GRAD.:     0.845 HEAT:  20.12226
 CYCLE:   150 TIME:   0.031 TIME LEFT:  2.00D  GRAD.:     1.030 HEAT:  20.12229
 CYCLE:   151 TIME:   0.039 TIME LEFT:  2.00D  GRAD.:     0.656 HEAT:  20.12185
 CYCLE:   152 TIME:   0.039 TIME LEFT:  2.00D  GRAD.:     1.238 HEAT:  20.12295
 CYCLE:   153 TIME:   0.039 TIME LEFT:  2.00D  GRAD.:     2.528 HEAT:  20.12769
 CYCLE:   154 TIME:   0.094 TIME LEFT:  2.00D  GRAD.:     1.914 HEAT:  20.12570
 CYCLE:   155 TIME:   0.039 TIME LEFT:  2.00D  GRAD.:     0.869 HEAT:  20.12486
 CYCLE:   156 TIME:   0.039 TIME LEFT:  2.00D  GRAD.:     2.331 HEAT:  20.12636
 CYCLE:   157 TIME:   0.094 TIME LEFT:  2.00D  GRAD.:     1.833 HEAT:  20.12525
 CYCLE:   158 TIME:   0.031 TIME LEFT:  2.00D  GRAD.:     1.055 HEAT:  20.12591
 CYCLE:   159 TIME:   0.039 TIME LEFT:  2.00D  GRAD.:     1.691 HEAT:  20.12345
 CYCLE:   160 TIME:   0.039 TIME LEFT:  2.00D  GRAD.:     2.882 HEAT:  20.12696
 CYCLE:   161 TIME:   0.102 TIME LEFT:  2.00D  GRAD.:     2.737 HEAT:  20.12650
 CYCLE:   162 TIME:   0.039 TIME LEFT:  2.00D  GRAD.:     1.165 HEAT:  20.12562
 CYCLE:   163 TIME:   0.031 TIME LEFT:  2.00D  GRAD.:     3.268 HEAT:  20.12709
 CYCLE:   164 TIME:   0.125 TIME LEFT:  2.00D  GRAD.:     1.925 HEAT:  20.12439
 CYCLE:   165 TIME:   0.047 TIME LEFT:  2.00D  GRAD.:     0.618 HEAT:  20.12414
 CYCLE:   166 TIME:   0.039 TIME LEFT:  2.00D  GRAD.:     2.369 HEAT:  20.12460
 CYCLE:   167 TIME:   0.086 TIME LEFT:  2.00D  GRAD.:     2.382 HEAT:  20.12647
 CYCLE:   168 TIME:   0.047 TIME LEFT:  2.00D  GRAD.:     0.743 HEAT:  20.12760
 CYCLE:   169 TIME:   0.031 TIME LEFT:  2.00D  GRAD.:     2.655 HEAT:  20.12586
 CYCLE:   170 TIME:   0.086 TIME LEFT:  2.00D  GRAD.:     2.819 HEAT:  20.12646
 CYCLE:   171 TIME:   0.039 TIME LEFT:  2.00D  GRAD.:     0.882 HEAT:  20.12265
 CYCLE:   172 TIME:   0.078 TIME LEFT:  2.00D  GRAD.:     1.870 HEAT:  20.12340
 CYCLE:   173 TIME:   0.039 TIME LEFT:  2.00D  GRAD.:     1.105 HEAT:  20.12258
 CYCLE:   174 TIME:   0.039 TIME LEFT:  2.00D  GRAD.:     2.074 HEAT:  20.12440
 CYCLE:   175 TIME:   0.070 TIME LEFT:  2.00D  GRAD.:     3.176 HEAT:  20.12858
 CYCLE:   176 TIME:   0.039 TIME LEFT:  2.00D  GRAD.:     0.812 HEAT:  20.12508
 CYCLE:   177 TIME:   0.086 TIME LEFT:  2.00D  GRAD.:     2.327 HEAT:  20.12536
 CYCLE:   178 TIME:   0.039 TIME LEFT:  2.00D  GRAD.:     0.941 HEAT:  20.12205
 CYCLE:   179 TIME:   0.047 TIME LEFT:  2.00D  GRAD.:     2.316 HEAT:  20.12501
 CYCLE:   180 TIME:   0.039 TIME LEFT:  2.00D  GRAD.:     3.202 HEAT:  20.13099
 CYCLE:   181 TIME:   0.125 TIME LEFT:  2.00D  GRAD.:     2.574 HEAT:  20.13053
 CYCLE:   182 TIME:   0.039 TIME LEFT:  2.00D  GRAD.:     0.562 HEAT:  20.12905
 CYCLE:   183 TIME:   0.047 TIME LEFT:  2.00D  GRAD.:     3.300 HEAT:  20.13126
 CYCLE:   184 TIME:   0.117 TIME LEFT:  2.00D  GRAD.:     2.045 HEAT:  20.12850
 CYCLE:   185 TIME:   0.047 TIME LEFT:  2.00D  GRAD.:     0.674 HEAT:  20.12777
 CYCLE:   186 TIME:   0.047 TIME LEFT:  2.00D  GRAD.:     2.576 HEAT:  20.12890
 CYCLE:   187 TIME:   0.078 TIME LEFT:  2.00D  GRAD.:     2.188 HEAT:  20.12842
 CYCLE:   188 TIME:   0.039 TIME LEFT:  2.00D  GRAD.:     0.793 HEAT:  20.12712
 CYCLE:   189 TIME:   0.047 TIME LEFT:  2.00D  GRAD.:     2.028 HEAT:  20.12608
 CYCLE:   190 TIME:   0.039 TIME LEFT:  2.00D  GRAD.:     2.579 HEAT:  20.12466
 CYCLE:   191 TIME:   0.094 TIME LEFT:  2.00D  GRAD.:     2.777 HEAT:  20.12491
 CYCLE:   192 TIME:   0.039 TIME LEFT:  2.00D  GRAD.:     0.397 HEAT:  20.12205
 CYCLE:   193 TIME:   0.078 TIME LEFT:  2.00D  GRAD.:     1.811 HEAT:  20.12269
 CYCLE:   194 TIME:   0.039 TIME LEFT:  2.00D  GRAD.:     0.839 HEAT:  20.12187
 CYCLE:   195 TIME:   0.047 TIME LEFT:  2.00D  GRAD.:     0.701 HEAT:  20.12176
 CYCLE:   196 TIME:   0.039 TIME LEFT:  2.00D  GRAD.:     2.553 HEAT:  20.12810
 CYCLE:   197 TIME:   0.078 TIME LEFT:  2.00D  GRAD.:     2.588 HEAT:  20.13019
 CYCLE:   198 TIME:   0.047 TIME LEFT:  2.00D  GRAD.:     0.924 HEAT:  20.12865
 CYCLE:   199 TIME:   0.086 TIME LEFT:  2.00D  GRAD.:     1.716 HEAT:  20.12710
 CYCLE:   200 TIME:   0.047 TIME LEFT:  2.00D  GRAD.:     0.924 HEAT:  20.12397
 CYCLE:   201 TIME:   0.039 TIME LEFT:  2.00D  GRAD.:     1.757 HEAT:  20.12304
 CYCLE:   202 TIME:   0.039 TIME LEFT:  2.00D  GRAD.:     2.065 HEAT:  20.12407
 CYCLE:   203 TIME:   0.047 TIME LEFT:  2.00D  GRAD.:     3.257 HEAT:  20.12983
 CYCLE:   204 TIME:   0.109 TIME LEFT:  2.00D  GRAD.:     2.409 HEAT:  20.12764
 CYCLE:   205 TIME:   0.039 TIME LEFT:  2.00D  GRAD.:     0.847 HEAT:  20.12676
 CYCLE:   206 TIME:   0.039 TIME LEFT:  2.00D  GRAD.:     3.006 HEAT:  20.12818
 CYCLE:   207 TIME:   0.109 TIME LEFT:  2.00D  GRAD.:     1.763 HEAT:  20.12614
 CYCLE:   208 TIME:   0.047 TIME LEFT:  2.00D  GRAD.:     0.479 HEAT:  20.12564
 CYCLE:   209 TIME:   0.047 TIME LEFT:  2.00D  GRAD.:     2.208 HEAT:  20.12646
 CYCLE:   210 TIME:   0.086 TIME LEFT:  2.00D  GRAD.:     2.129 HEAT:  20.12650
 CYCLE:   211 TIME:   0.047 TIME LEFT:  2.00D  GRAD.:     0.488 HEAT:  20.12609
 CYCLE:   212 TIME:   0.039 TIME LEFT:  2.00D  GRAD.:     2.316 HEAT:  20.12588
 CYCLE:   213 TIME:   0.047 TIME LEFT:  2.00D  GRAD.:     3.042 HEAT:  20.12667
 CYCLE:   214 TIME:   0.070 TIME LEFT:  2.00D  GRAD.:     2.739 HEAT:  20.12544
 CYCLE:   215 TIME:   0.078 TIME LEFT:  2.00D  GRAD.:     2.459 HEAT:  20.12425
 CYCLE:   216 TIME:   0.047 TIME LEFT:  2.00D  GRAD.:     0.752 HEAT:  20.12220
 CYCLE:   217 TIME:   0.047 TIME LEFT:  2.00D  GRAD.:     2.042 HEAT:  20.12395
 CYCLE:   218 TIME:   0.086 TIME LEFT:  2.00D  GRAD.:     2.510 HEAT:  20.12404
 CYCLE:   219 TIME:   0.039 TIME LEFT:  2.00D  GRAD.:     0.846 HEAT:  20.12213
 CYCLE:   220 TIME:   0.039 TIME LEFT:  2.00D  GRAD.:     2.658 HEAT:  20.12501
 CYCLE:   221 TIME:   0.047 TIME LEFT:  2.00D  GRAD.:     3.030 HEAT:  20.12992
 CYCLE:   222 TIME:   0.086 TIME LEFT:  2.00D  GRAD.:     3.446 HEAT:  20.13263
 CYCLE:   223 TIME:   0.039 TIME LEFT:  2.00D  GRAD.:     0.769 HEAT:  20.13150
 CYCLE:   224 TIME:   0.047 TIME LEFT:  2.00D  GRAD.:     3.883 HEAT:  20.13113
 CYCLE:   225 TIME:   0.031 TIME LEFT:  2.00D  GRAD.:     2.847 HEAT:  20.12672
 CYCLE:   226 TIME:   0.086 TIME LEFT:  2.00D  GRAD.:     2.828 HEAT:  20.12556
 CYCLE:   227 TIME:   0.078 TIME LEFT:  2.00D  GRAD.:     1.996 HEAT:  20.12383
 CYCLE:   228 TIME:   0.039 TIME LEFT:  2.00D  GRAD.:     0.773 HEAT:  20.12246
 CYCLE:   229 TIME:   0.031 TIME LEFT:  2.00D  GRAD.:     1.966 HEAT:  20.12285
 CYCLE:   230 TIME:   0.039 TIME LEFT:  2.00D  GRAD.:     1.165 HEAT:  20.12304
 CYCLE:   231 TIME:   0.039 TIME LEFT:  2.00D  GRAD.:     1.757 HEAT:  20.12288
 CYCLE:   232 TIME:   0.078 TIME LEFT:  2.00D  GRAD.:     1.817 HEAT:  20.12358
 CYCLE:   233 TIME:   0.047 TIME LEFT:  2.00D  GRAD.:     0.784 HEAT:  20.12367
 CYCLE:   234 TIME:   0.039 TIME LEFT:  2.00D  GRAD.:     1.956 HEAT:  20.12297
 CYCLE:   235 TIME:   0.039 TIME LEFT:  2.00D  GRAD.:     2.496 HEAT:  20.12431
 CYCLE:   236 TIME:   0.086 TIME LEFT:  2.00D  GRAD.:     2.771 HEAT:  20.12560
 CYCLE:   237 TIME:   0.047 TIME LEFT:  2.00D  GRAD.:     0.397 HEAT:  20.12423
 CYCLE:   238 TIME:   0.070 TIME LEFT:  2.00D  GRAD.:     1.833 HEAT:  20.12381
 CYCLE:   239 TIME:   0.047 TIME LEFT:  2.00D  GRAD.:     0.808 HEAT:  20.12179
 CYCLE:   240 TIME:   0.047 TIME LEFT:  2.00D  GRAD.:     3.130 HEAT:  20.12618
 CYCLE:   241 TIME:   0.117 TIME LEFT:  2.00D  GRAD.:     2.563 HEAT:  20.12506
 CYCLE:   242 TIME:   0.039 TIME LEFT:  2.00D  GRAD.:     0.401 HEAT:  20.12355
 CYCLE:   243 TIME:   0.047 TIME LEFT:  2.00D  GRAD.:     3.267 HEAT:  20.12590
 CYCLE:   244 TIME:   0.125 TIME LEFT:  2.00D  GRAD.:     2.156 HEAT:  20.12426
 CYCLE:   245 TIME:   0.047 TIME LEFT:  2.00D  GRAD.:     0.390 HEAT:  20.12341
 CYCLE:   246 TIME:   0.039 TIME LEFT:  2.00D  GRAD.:     2.763 HEAT:  20.12477
 CYCLE:   247 TIME:   0.062 TIME LEFT:  2.00D  GRAD.:     2.610 HEAT:  20.12546
 CYCLE:   248 TIME:   0.039 TIME LEFT:  2.00D  GRAD.:     0.773 HEAT:  20.12519
 CYCLE:   249 TIME:   0.047 TIME LEFT:  2.00D  GRAD.:     3.116 HEAT:  20.12469
 CYCLE:   250 TIME:   0.102 TIME LEFT:  2.00D  GRAD.:     2.291 HEAT:  20.12317
 CYCLE:   251 TIME:   0.047 TIME LEFT:  2.00D  GRAD.:     0.560 HEAT:  20.12145
 CYCLE:   252 TIME:   0.039 TIME LEFT:  2.00D  GRAD.:     2.139 HEAT:  20.12314
 CYCLE:   253 TIME:   0.086 TIME LEFT:  2.00D  GRAD.:     2.364 HEAT:  20.12311
 CYCLE:   254 TIME:   0.047 TIME LEFT:  2.00D  GRAD.:     0.849 HEAT:  20.12160
 CYCLE:   255 TIME:   0.047 TIME LEFT:  2.00D  GRAD.:     2.589 HEAT:  20.12550
 CYCLE:   256 TIME:   0.039 TIME LEFT:  2.00D  GRAD.:     0.331 HEAT:  20.12127
 CYCLE:   257 TIME:   0.039 TIME LEFT:  2.00D  GRAD.:     1.718 HEAT:  20.12309
 CYCLE:   258 TIME:   0.039 TIME LEFT:  2.00D  GRAD.:     0.507 HEAT:  20.12128
 CYCLE:   259 TIME:   0.039 TIME LEFT:  2.00D  GRAD.:     2.318 HEAT:  20.12487
 CYCLE:   260 TIME:   0.047 TIME LEFT:  2.00D  GRAD.:     2.387 HEAT:  20.12774
 CYCLE:   261 TIME:   0.031 TIME LEFT:  2.00D  GRAD.:     3.510 HEAT:  20.13633
 CYCLE:   262 TIME:   0.133 TIME LEFT:  2.00D  GRAD.:     1.848 HEAT:  20.13317
 CYCLE:   263 TIME:   0.047 TIME LEFT:  2.00D  GRAD.:     0.582 HEAT:  20.13387
 CYCLE:   264 TIME:   0.047 TIME LEFT:  2.00D  GRAD.:     2.329 HEAT:  20.13232
 CYCLE:   265 TIME:   0.047 TIME LEFT:  2.00D  GRAD.:     1.869 HEAT:  20.12633
 CYCLE:   266 TIME:   0.047 TIME LEFT:  2.00D  GRAD.:     2.731 HEAT:  20.12472
 CYCLE:   267 TIME:   0.078 TIME LEFT:  2.00D  GRAD.:     2.339 HEAT:  20.12383
 CYCLE:   268 TIME:   0.047 TIME LEFT:  2.00D  GRAD.:     0.617 HEAT:  20.12213
 CYCLE:   269 TIME:   0.031 TIME LEFT:  2.00D  GRAD.:     2.223 HEAT:  20.12372
 CYCLE:   270 TIME:   0.047 TIME LEFT:  2.00D  GRAD.:     2.242 HEAT:  20.12558
 CYCLE:   271 TIME:   0.047 TIME LEFT:  2.00D  GRAD.:     2.862 HEAT:  20.13109
 CYCLE:   272 TIME:   0.070 TIME LEFT:  2.00D  GRAD.:     2.328 HEAT:  20.13230
 CYCLE:   273 TIME:   0.047 TIME LEFT:  2.00D  GRAD.:     0.806 HEAT:  20.13306
 CYCLE:   274 TIME:   0.055 TIME LEFT:  2.00D  GRAD.:     2.409 HEAT:  20.12940
 CYCLE:   275 TIME:   0.047 TIME LEFT:  2.00D  GRAD.:     2.077 HEAT:  20.12485
 CYCLE:   276 TIME:   0.039 TIME LEFT:  2.00D  GRAD.:     2.704 HEAT:  20.12467
 CYCLE:   277 TIME:   0.047 TIME LEFT:  2.00D  GRAD.:     2.200 HEAT:  20.12345
 CYCLE:   278 TIME:   0.039 TIME LEFT:  2.00D  GRAD.:     0.701 HEAT:  20.12213
 CYCLE:   279 TIME:   0.047 TIME LEFT:  2.00D  GRAD.:     2.398 HEAT:  20.12369
 CYCLE:   280 TIME:   0.047 TIME LEFT:  2.00D  GRAD.:     1.963 HEAT:  20.12456
 CYCLE:   281 TIME:   0.031 TIME LEFT:  2.00D  GRAD.:     0.929 HEAT:  20.12160
 CYCLE:   282 TIME:   0.039 TIME LEFT:  2.00D  GRAD.:     0.370 HEAT:  20.12121
 CYCLE:   283 TIME:   0.047 TIME LEFT:  2.00D  GRAD.:     0.157 HEAT:  20.12113
 CYCLE:   284 TIME:   0.031 TIME LEFT:  2.00D  GRAD.:     0.524 HEAT:  20.12132
 CYCLE:   285 TIME:   0.047 TIME LEFT:  2.00D  GRAD.:     0.350 HEAT:  20.12121
 CYCLE:   286 TIME:   0.039 TIME LEFT:  2.00D  GRAD.:     1.382 HEAT:  20.12268
 CYCLE:   287 TIME:   0.055 TIME LEFT:  2.00D  GRAD.:     0.138 HEAT:  20.12113
 CYCLE:   288 TIME:   0.047 TIME LEFT:  2.00D  GRAD.:     0.156 HEAT:  20.12110
 CYCLE:   289 TIME:   0.039 TIME LEFT:  2.00D  GRAD.:     0.063 HEAT:  20.12109
 CYCLE:   290 TIME:   0.039 TIME LEFT:  2.00D  GRAD.:     0.042 HEAT:  20.12108

     GRADIENT =  0.04225 IS LESS THAN CUTOFF =  0.05000



 -------------------------------------------------------------------------------
 PM6-D3H4 CHARGE=0 PRECISE TS




     GEOMETRY OPTIMISED USING EIGENVECTOR FOLLOWING (TS).     
     SCF FIELD WAS ACHIEVED                                   


                              PM6-D3H4 CALCULATION
                                                       MOPAC2016 (Version: 22.066W)
                                                       Mon May  9 22:55:00 2022




          FINAL HEAT OF FORMATION =         20.12108 KCAL/MOL =      84.18661 KJ/MOL


          COSMO AREA              =        277.50 SQUARE ANGSTROMS
          COSMO VOLUME            =        348.26 CUBIC ANGSTROMS

          GRADIENT NORM           =          0.04225          =       0.00668 PER ATOM
          IONIZATION POTENTIAL    =          8.008835 EV
          HOMO LUMO ENERGIES (EV) =         -8.009 -1.629
          NO. OF FILLED LEVELS    =         52
          MOLECULAR WEIGHT        =        268.3548         POINT GROUP:  C1  

          MOLECULAR DIMENSIONS (Angstroms)

            Atom       Atom       Distance
            H    28    H     9     9.71675
            H    17    H    39     6.79506
            H    30    H    40     6.20395


          SCF CALCULATIONS        =        490
 
          WALL-CLOCK TIME         =         19.695 SECONDS
          COMPUTATION TIME        =         38.266 SECONDS




   ATOM   CHEMICAL          X               Y               Z
  NUMBER   SYMBOL      (ANGSTROMS)     (ANGSTROMS)     (ANGSTROMS)
 
     1       O         -0.22268997  *  -0.36750684  *  -0.11214961  *
     2       C          1.03631929  *  -0.21155242  *  -0.00921846  *
     3       C          1.54613858  *   1.05626916  *   0.46946447  *
     4       C          2.87464384  *   1.21660979  *   0.75166226  *
     5       C          3.79057530  *   0.14092710  *   0.58507029  *
     6       C          3.34835686  *  -1.04904311  *   0.05200477  *
     7       C          1.97392496  *  -1.28450288  *  -0.23500829  *
     8       H          0.82880723  *   1.86634995  *   0.56171275  *
     9       H          3.25512899  *   2.17509897  *   1.10818301  *
    10       H          4.83361755  *   0.28748902  *   0.84167665  *
    11       C          1.66025851  *  -2.42525519  *  -1.18199243  *
    12       H          1.63362557  *  -2.09768617  *   1.20551564  *
    13       C          0.19605515  *  -2.69481316  *  -1.38510306  *
    14       H          2.17888160  *  -3.35096243  *  -0.82814271  *
    15       H          2.08445353  *  -2.14878270  *  -2.18638127  *
    16       C         -0.38402085  *  -3.87138372  *  -1.14799149  *
    17       H         -0.37524922  *  -1.83189667  *  -1.75403502  *
    18       H          0.16071706  *  -4.73681248  *  -0.78182703  *
    19       H         -1.44320013  *  -4.03466747  *  -1.32781044  *
    20       O          1.28115382  *  -3.09767164  *   1.66901994  *
    21       C          0.01757838  *  -3.19222656  *   1.91481326  *
    22       C         -0.47144660  *  -4.52522905  *   2.17107908  *
    23       C         -1.81186381  *  -4.74772521  *   2.24707495  *
    24       C         -2.75830010  *  -3.66737440  *   2.11408486  *
    25       C         -2.32904829  *  -2.38789982  *   1.98541154  *
    26       C         -0.89807765  *  -2.03472888  *   1.90506943  *
    27       H          0.26818474  *  -5.32247475  *   2.26062283  *
    28       H         -2.20446468  *  -5.75658145  *   2.41068808  *
    29       H         -3.82028106  *  -3.91218483  *   2.13411182  *
    30       H         -3.03174512  *  -1.55092858  *   1.91749588  *
    31       C         -0.50313006  *  -0.88557513  *   2.86277589  *
    32       H         -0.76671301  *  -1.50333551  *   0.76180491  *
    33       C          0.61064070  *  -1.25654585  *   3.80004956  *
    34       H         -1.39318025  *  -0.60270175  *   3.47980466  *
    35       H         -0.21930667  *   0.01253350  *   2.24843380  *
    36       C          1.80539379  *  -0.66837062  *   3.78912286  *
    37       H          0.36351499  *  -2.04546755  *   4.51358231  *
    38       H          2.07319574  *   0.11579175  *   3.07680624  *
    39       H          2.59235510  *  -0.94071528  *   4.49084902  *
    40       H          4.06242021  *  -1.84975927  *  -0.15247077  *

                             CARTESIAN COORDINATES

   1    O       -0.222689975    -0.367506843    -0.112149613
   2    C        1.036319294    -0.211552420    -0.009218455
   3    C        1.546138585     1.056269161     0.469464466
   4    C        2.874643844     1.216609788     0.751662260
   5    C        3.790575301     0.140927104     0.585070286
   6    C        3.348356859    -1.049043108     0.052004772
   7    C        1.973924957    -1.284502880    -0.235008295
   8    H        0.828807231     1.866349952     0.561712755
   9    H        3.255128986     2.175098967     1.108183012
  10    H        4.833617550     0.287489022     0.841676654
  11    C        1.660258510    -2.425255186    -1.181992429
  12    H        1.633625570    -2.097686166     1.205515640
  13    C        0.196055146    -2.694813162    -1.385103064
  14    H        2.178881605    -3.350962430    -0.828142707
  15    H        2.084453529    -2.148782702    -2.186381270
  16    C       -0.384020849    -3.871383716    -1.147991493
  17    H       -0.375249217    -1.831896674    -1.754035016
  18    H        0.160717055    -4.736812478    -0.781827035
  19    H       -1.443200133    -4.034667466    -1.327810445
  20    O        1.281153824    -3.097671635     1.669019936
  21    C        0.017578384    -3.192226562     1.914813263
  22    C       -0.471446601    -4.525229045     2.171079083
  23    C       -1.811863812    -4.747725211     2.247074954
  24    C       -2.758300101    -3.667374402     2.114084862
  25    C       -2.329048286    -2.387899815     1.985411542
  26    C       -0.898077649    -2.034728879     1.905069432
  27    H        0.268184738    -5.322474749     2.260622832
  28    H       -2.204464677    -5.756581450     2.410688080
  29    H       -3.820281062    -3.912184830     2.134111823
  30    H       -3.031745122    -1.550928582     1.917495877
  31    C       -0.503130062    -0.885575129     2.862775893
  32    H       -0.766713006    -1.503335505     0.761804910
  33    C        0.610640701    -1.256545847     3.800049555
  34    H       -1.393180248    -0.602701754     3.479804659
  35    H       -0.219306674     0.012533496     2.248433802
  36    C        1.805393792    -0.668370617     3.789122855
  37    H        0.363514992    -2.045467546     4.513582309
  38    H        2.073195742     0.115791753     3.076806236
  39    H        2.592355104    -0.940715279     4.490849020
  40    H        4.062420207    -1.849759274    -0.152470769


           Empirical Formula: C18 H20 O2  =    40 atoms



      MOLECULAR POINT GROUP   :   C1  


                  EIGENVALUES  
 -32.35083 -30.59543 -29.75827 -28.73417 -28.46804 -27.63797 -27.02671 -26.34171
 -25.71856 -24.53988 -24.25434 -23.13109 -22.30928 -22.05349 -20.72320 -20.09960
 -19.81352 -18.92418 -18.78712 -17.84153 -17.05819 -16.85874 -16.51958 -16.11301
 -15.82330 -15.68772 -15.41647 -15.32003 -15.07293 -14.47297 -14.34885 -14.31954
 -13.99426 -13.85663 -13.69744 -13.47774 -13.34948 -12.74765 -12.61917 -12.48874
 -12.36315 -12.16271 -12.08884 -11.65159 -11.43906 -11.15346 -10.57875 -10.38325
  -9.98980  -9.44145  -9.27786  -8.00884  -1.62860  -0.25804   0.38401   0.77298
   1.01994   1.22072   1.41305   1.77269   2.46815   2.69909   2.90843   3.27983
   3.46405   3.66265   3.90079   4.17686   4.24219   4.27584   4.36403   4.43056
   4.56717   4.78001   4.95859   4.98303   5.00368   5.11014   5.33687   5.36544
   5.41840   5.44732   5.48053   5.69415   5.70468   5.72307   5.76097   5.83289
   6.14296   6.14713   6.19340   6.24353   6.26137   6.27565   6.38379   6.50766
   6.77767   6.79374   6.89232   6.95554


              NET ATOMIC CHARGES AND DIPOLE CONTRIBUTIONS

  ATOM NO.   TYPE          CHARGE      No. of ELECS.   s-Pop       p-Pop       
    1          O          -0.724313        6.7243     1.85926     4.86506
    2          C           0.564518        3.4355     1.07540     2.36008
    3          C          -0.442041        4.4420     1.12227     3.31977
    4          C           0.044129        3.9559     1.10315     2.85272
    5          C          -0.374408        4.3744     1.09951     3.27490
    6          C           0.040300        3.9597     1.10611     2.85359
    7          C          -0.469922        4.4699     1.11156     3.35837
    8          H           0.178724        0.8213     0.82128
    9          H           0.124619        0.8754     0.87538
   10          H           0.156906        0.8431     0.84309
   11          C          -0.228094        4.2281     1.07894     3.14915
   12          H           0.422534        0.5775     0.57747
   13          C          -0.045994        4.0460     1.12051     2.92549
   14          H           0.135901        0.8641     0.86410
   15          H           0.150703        0.8493     0.84930
   16          C          -0.442601        4.4426     1.12054     3.32207
   17          H           0.164449        0.8356     0.83555
   18          H           0.152440        0.8476     0.84756
   19          H           0.153455        0.8465     0.84655
   20          O          -0.437656        6.4377     1.82628     4.61138
   21          C           0.592153        3.4078     1.11660     2.29124
   22          C          -0.432211        4.4322     1.11596     3.31625
   23          C           0.129617        3.8704     1.11507     2.75531
   24          C          -0.347904        4.3479     1.10770     3.24021
   25          C           0.074878        3.9251     1.12137     2.80375
   26          C          -0.422189        4.4222     1.12398     3.29820
   27          H           0.204624        0.7954     0.79538
   28          H           0.143905        0.8561     0.85609
   29          H           0.178603        0.8214     0.82140
   30          H           0.152157        0.8478     0.84784
   31          C          -0.222190        4.2222     1.08766     3.13453
   32          H           0.372034        0.6280     0.62797
   33          C          -0.148096        4.1481     1.11122     3.03687
   34          H           0.151147        0.8489     0.84885
   35          H           0.182725        0.8173     0.81728
   36          C          -0.321369        4.3214     1.12813     3.19324
   37          H           0.139778        0.8602     0.86022
   38          H           0.169903        0.8301     0.83010
   39          H           0.154297        0.8457     0.84570
   40          H           0.124491        0.8755     0.87551
 DIPOLE           X         Y         Z       TOTAL
 POINT-CHG.    -2.377    -3.880     4.524     6.417
 HYBRID         0.256    -0.022    -0.282     0.382
 SUM           -2.120    -3.902     4.242     6.142


          ATOMIC ORBITAL ELECTRON POPULATIONS

     Atom    s        px        py        pz   
    1  O   1.85926   1.32548   1.84579   1.69378
    2  C   1.07540   0.79981   0.85559   0.70468
    3  C   1.12227   1.05327   1.10628   1.16021
    4  C   1.10315   0.95703   1.00972   0.88596
    5  C   1.09951   1.08291   1.01698   1.17501
    6  C   1.10611   0.97635   0.98838   0.88886
    7  C   1.11156   1.02921   1.09113   1.23802
    8  H   0.82128
    9  H   0.87538
   10  H   0.84309
   11  C   1.07894   1.02036   1.04766   1.08113
   12  H   0.57747
   13  C   1.12051   0.98691   1.01949   0.91909
   14  H   0.86410
   15  H   0.84930
   16  C   1.12054   1.12678   1.07120   1.12409
   17  H   0.83555
   18  H   0.84756
   19  H   0.84655
   20  O   1.82628   1.33349   1.64309   1.63479
   21  C   1.11660   0.78018   0.91259   0.59847
   22  C   1.11596   1.05979   1.06168   1.19478
   23  C   1.11507   0.95116   1.02998   0.77417
   24  C   1.10770   1.09153   1.00534   1.14333
   25  C   1.12137   0.98075   1.00991   0.81309
   26  C   1.12398   1.00321   1.04969   1.24531
   27  H   0.79538
   28  H   0.85609
   29  H   0.82140
   30  H   0.84784
   31  C   1.08766   1.07417   1.03060   1.02975
   32  H   0.62797
   33  C   1.11122   0.97530   1.04084   1.02073
   34  H   0.84885
   35  H   0.81728
   36  C   1.12813   1.03825   1.06382   1.09117
   37  H   0.86022
   38  H   0.83010
   39  H   0.84570
   40  H   0.87551

 **********************
 *                    *
 * JOB ENDED NORMALLY *
 *                    *
 **********************



 TOTAL JOB TIME:            19.70 SECONDS

 == MOPAC DONE ==
