 *******************************************************************************
 ** Cite this program as: MOPAC2016, Version: 22.066W, James J. P. Stewart,   **
 **                           web-site: HTTP://OpenMOPAC.net.                 **
 *******************************************************************************
 **                                                                           **
 **                                MOPAC2016                                  **
 **                                                                           **
 *******************************************************************************

                              PM6-D3H4 CALCULATION RESULTS

 *******************************************************************************
 *  CALCULATION DONE:                                Mon May  9 22:56:49 2022  *
 *  PM6-D3H4   - CORRECT DISPERSION AND HYDROGEN BOND TERMS USING THE D3H4 METHOD
 *  GEO_DAT    - DATA SET GEOMETRY IS IN FILE "E2_TS.ARC"
 *
 *
 *
 *                 CHARGE ON SYSTEM = 0
 *
 *
 *
 *  LET        - OVERRIDE SOME SAFETY CHECKS
 *  FORCE      - FORCE CALCULATION SPECIFIED
 *  T=         - A TIME OF 172800.0 SECONDS REQUESTED
 *  DUMP=N     - RESTART FILE WRITTEN EVERY 7200.0 SECONDS REQUESTED
 *******************************************************************************
PM6-D3H4 CHARGE=0 FORCE LET GEO_DAT="E2_TS.arc"


   ATOM   CHEMICAL          X               Y               Z
  NUMBER   SYMBOL      (ANGSTROMS)     (ANGSTROMS)     (ANGSTROMS)
 
     1       O         -0.22268997  *  -0.36750684  *  -0.11214961  *
     2       C          1.03631929  *  -0.21155242  *  -0.00921846  *
     3       C          1.54613858  *   1.05626916  *   0.46946447  *
     4       C          2.87464384  *   1.21660979  *   0.75166226  *
     5       C          3.79057530  *   0.14092710  *   0.58507029  *
     6       C          3.34835686  *  -1.04904311  *   0.05200477  *
     7       C          1.97392496  *  -1.28450288  *  -0.23500829  *
     8       H          0.82880723  *   1.86634995  *   0.56171275  *
     9       H          3.25512899  *   2.17509897  *   1.10818301  *
    10       H          4.83361755  *   0.28748902  *   0.84167665  *
    11       C          1.66025851  *  -2.42525519  *  -1.18199243  *
    12       H          1.63362557  *  -2.09768617  *   1.20551564  *
    13       C          0.19605515  *  -2.69481316  *  -1.38510306  *
    14       H          2.17888160  *  -3.35096243  *  -0.82814271  *
    15       H          2.08445353  *  -2.14878270  *  -2.18638127  *
    16       C         -0.38402085  *  -3.87138372  *  -1.14799149  *
    17       H         -0.37524922  *  -1.83189667  *  -1.75403502  *
    18       H          0.16071706  *  -4.73681248  *  -0.78182703  *
    19       H         -1.44320013  *  -4.03466747  *  -1.32781044  *
    20       O          1.28115382  *  -3.09767164  *   1.66901994  *
    21       C          0.01757838  *  -3.19222656  *   1.91481326  *
    22       C         -0.47144660  *  -4.52522905  *   2.17107908  *
    23       C         -1.81186381  *  -4.74772521  *   2.24707495  *
    24       C         -2.75830010  *  -3.66737440  *   2.11408486  *
    25       C         -2.32904829  *  -2.38789982  *   1.98541154  *
    26       C         -0.89807765  *  -2.03472888  *   1.90506943  *
    27       H          0.26818474  *  -5.32247475  *   2.26062283  *
    28       H         -2.20446468  *  -5.75658145  *   2.41068808  *
    29       H         -3.82028106  *  -3.91218483  *   2.13411182  *
    30       H         -3.03174512  *  -1.55092858  *   1.91749588  *
    31       C         -0.50313006  *  -0.88557513  *   2.86277589  *
    32       H         -0.76671301  *  -1.50333551  *   0.76180491  *
    33       C          0.61064070  *  -1.25654585  *   3.80004956  *
    34       H         -1.39318025  *  -0.60270175  *   3.47980466  *
    35       H         -0.21930667  *   0.01253350  *   2.24843380  *
    36       C          1.80539379  *  -0.66837062  *   3.78912286  *
    37       H          0.36351499  *  -2.04546755  *   4.51358231  *
    38       H          2.07319574  *   0.11579175  *   3.07680624  *
    39       H          2.59235510  *  -0.94071528  *   4.49084902  *
    40       H          4.06242021  *  -1.84975927  *  -0.15247077  *
 


          CARTESIAN COORDINATES 

    NO.       ATOM           X           Y           Z

     1         O         -0.2227     -0.3675     -0.1121
     2         C          1.0363     -0.2116     -0.0092
     3         C          1.5461      1.0563      0.4695
     4         C          2.8746      1.2166      0.7517
     5         C          3.7906      0.1409      0.5851
     6         C          3.3484     -1.0490      0.0520
     7         C          1.9739     -1.2845     -0.2350
     8         H          0.8288      1.8663      0.5617
     9         H          3.2551      2.1751      1.1082
    10         H          4.8336      0.2875      0.8417
    11         C          1.6603     -2.4253     -1.1820
    12         H          1.6336     -2.0977      1.2055
    13         C          0.1961     -2.6948     -1.3851
    14         H          2.1789     -3.3510     -0.8281
    15         H          2.0845     -2.1488     -2.1864
    16         C         -0.3840     -3.8714     -1.1480
    17         H         -0.3752     -1.8319     -1.7540
    18         H          0.1607     -4.7368     -0.7818
    19         H         -1.4432     -4.0347     -1.3278
    20         O          1.2812     -3.0977      1.6690
    21         C          0.0176     -3.1922      1.9148
    22         C         -0.4714     -4.5252      2.1711
    23         C         -1.8119     -4.7477      2.2471
    24         C         -2.7583     -3.6674      2.1141
    25         C         -2.3290     -2.3879      1.9854
    26         C         -0.8981     -2.0347      1.9051
    27         H          0.2682     -5.3225      2.2606
    28         H         -2.2045     -5.7566      2.4107
    29         H         -3.8203     -3.9122      2.1341
    30         H         -3.0317     -1.5509      1.9175
    31         C         -0.5031     -0.8856      2.8628
    32         H         -0.7667     -1.5033      0.7618
    33         C          0.6106     -1.2565      3.8000
    34         H         -1.3932     -0.6027      3.4798
    35         H         -0.2193      0.0125      2.2484
    36         C          1.8054     -0.6684      3.7891
    37         H          0.3635     -2.0455      4.5136
    38         H          2.0732      0.1158      3.0768
    39         H          2.5924     -0.9407      4.4908
    40         H          4.0624     -1.8498     -0.1525

 General Reference for PM6:
 "Optimization of Parameters for Semiempirical Methods V: Modification of NDDO Approximations
 and Application to 70 Elements", J. J. P. Stewart, J. Mol. Mod., 13, 1173-1213 (2007)
 URL: https://link.springer.com/article/10.1007/s00894-007-0233-4

           Empirical Formula: C18 H20 O2  =    40 atoms



      MOLECULAR POINT GROUP   :   C1  


      RHF CALCULATION, NO. OF DOUBLY OCCUPIED LEVELS = 52



          HEAT OF FORMATION =      20.121082 KCALS/MOLE


          CARTESIAN COORDINATE DERIVATIVES

   NUMBER  ATOM         X            Y            Z

     1       O     -0.000655    -0.003676     0.004507
     2       C     -0.006275    -0.007102     0.003405
     3       C      0.001788     0.004940     0.000108
     4       C     -0.001631    -0.002123    -0.002138
     5       C      0.001034     0.004398    -0.002021
     6       C     -0.002352    -0.005532     0.001137
     7       C     -0.003581     0.003170    -0.001841
     8       H      0.000337    -0.000223    -0.000841
     9       H      0.003885     0.004292    -0.001599
    10       H      0.002371     0.000840     0.000060
    11       C      0.000558    -0.000303     0.003664
    12       H     -0.001686    -0.000560     0.004274
    13       C     -0.004859    -0.011957     0.002521
    14       H     -0.000146    -0.000730     0.000003
    15       H     -0.000818     0.001776    -0.002851
    16       C      0.008381     0.009057    -0.000641
    17       H      0.001247    -0.003910     0.001351
    18       H     -0.003126     0.006934    -0.003062
    19       H     -0.002572    -0.000595    -0.001324
    20       O      0.002158    -0.001918    -0.000882
    21       C      0.004508     0.006574    -0.001343
    22       C     -0.004897    -0.005080     0.000852
    23       C     -0.000148    -0.002764    -0.001476
    24       C     -0.006117    -0.008635    -0.000425
    25       C      0.003085     0.008975     0.002034
    26       C      0.005390     0.002095     0.007448
    27       H      0.001086    -0.005335    -0.000654
    28       H     -0.001747    -0.002864    -0.002506
    29       H      0.000644    -0.000623    -0.002519
    30       H      0.001708     0.000216     0.001438
    31       C      0.006170    -0.001938    -0.001861
    32       H      0.003559     0.004143    -0.004485
    33       C     -0.002667     0.010486    -0.002565
    34       H      0.001181    -0.001535     0.000657
    35       H      0.002297    -0.003398     0.005231
    36       C     -0.005284    -0.000074    -0.000744
    37       H     -0.001454     0.006839    -0.003070
    38       H      0.005081    -0.010306     0.003956
    39       H     -0.004164     0.004976    -0.003987
    40       H     -0.002289     0.001475     0.000188
 


          GRADIENT NORM =   0.04280


          TIME FOR SCF CALCULATION =    0.12

          TIME FOR DERIVATIVES     =    0.03

          MOLECULAR WEIGHT =  268.35



          ROTATIONAL CONSTANTS IN CM(-1)

          A =    0.01845045   B =    0.01013082   C =    0.00847444



           PRINCIPAL MOMENTS OF INERTIA IN UNITS OF 10**(-40)*GRAM-CM**2

          A =     1517.1865   B =     2763.1290   C =     3303.1988


          ORIENTATION OF MOLECULE IN FORCE CALCULATION

    NO.       ATOM         X         Y         Z

     1          O      -0.6766    1.0380   -1.6092
     2          C       0.5962    1.0380   -1.6092
     3          C       1.2945    2.3063   -1.6092
     4          C       2.6511    2.3602   -1.4446
     5          C       3.4118    1.1714   -1.2662
     6          C       2.7855   -0.0522   -1.3462
     7          C       1.3739   -0.1711   -1.4881
     8          H       0.6917    3.1945   -1.7738
     9          H       3.1737    3.3180   -1.4495
    10          H       4.4823    1.2446   -1.1112
    11          C       0.8472   -1.5049   -1.9781
    12          H       1.0541   -0.4010    0.1542
    13          C      -0.6505   -1.6148   -2.0264
    14          H       1.2754   -2.3239   -1.3481
    15          H       1.2195   -1.6420   -3.0306
    16          C      -1.3493   -2.5498   -1.3826
    17          H      -1.1398   -0.8518   -2.6474
    18          H      -0.8869   -3.3123   -0.7625
    19          H      -2.4316   -2.6108   -1.4593
    20          O       0.6204   -1.1285    0.9427
    21          C      -0.6212   -0.9545    1.2495
    22          C      -1.2475   -2.0420    1.9615
    23          C      -2.5945   -2.0328    2.1551
    24          C      -3.4091   -0.9350    1.6947
    25          C      -2.8381    0.1535    1.1229
    26          C      -1.3859    0.2518    0.8776
    27          H      -0.6063   -2.8608    2.2918
    28          H      -3.0932   -2.8627    2.6662
    29          H      -4.4879   -1.0050    1.8337
    30          H      -3.4361    1.0113    0.7982
    31          C      -0.7769    1.5854    1.3720
    32          H      -1.2833    0.3478   -0.3822
    33          C       0.3551    1.3927    2.3405
    34          H      -1.5728    2.1814    1.8861
    35          H      -0.4358    2.1775    0.4790
    36          C       1.6081    1.7668    2.0884
    37          H       0.0717    0.9301    3.2883
    38          H       1.9115    2.2224    1.1427
    39          H       2.4099    1.6343    2.8133
    40          H       3.3772   -0.9685   -1.2901


    FIRST DERIVATIVES WILL BE USED IN THE CALCULATION OF SECOND DERIVATIVES

          ESTIMATED TIME TO COMPLETE CALCULATION =       35.62 SECONDS

    FOR POINT-GROUP C1   THERE ARE   1 UNIQUE SYMMETRY FUNCTIONS.

 STEP:   1 TIME =     0.09 SECS, INTEGRAL =      0.09 TIME LEFT: 172799.76
 STEP:   2 TIME =     0.09 SECS, INTEGRAL =      0.18 TIME LEFT: 172799.67
 STEP:   3 TIME =     0.09 SECS, INTEGRAL =      0.27 TIME LEFT: 172799.58
 STEP:   4 TIME =     0.09 SECS, INTEGRAL =      0.37 TIME LEFT: 172799.48
 STEP:   5 TIME =     0.10 SECS, INTEGRAL =      0.47 TIME LEFT: 172799.38
 STEP:   6 TIME =     0.09 SECS, INTEGRAL =      0.56 TIME LEFT: 172799.29
 STEP:   7 TIME =     0.15 SECS, INTEGRAL =      0.71 TIME LEFT: 172799.14
 STEP:   8 TIME =     0.23 SECS, INTEGRAL =      0.95 TIME LEFT: 172798.91
 STEP:   9 TIME =     0.13 SECS, INTEGRAL =      1.08 TIME LEFT: 172798.77
 STEP:  10 TIME =     0.09 SECS, INTEGRAL =      1.17 TIME LEFT: 172798.68
 STEP:  11 TIME =     0.09 SECS, INTEGRAL =      1.27 TIME LEFT: 172798.59
 STEP:  12 TIME =     0.09 SECS, INTEGRAL =      1.36 TIME LEFT: 172798.49
 STEP:  13 TIME =     0.09 SECS, INTEGRAL =      1.45 TIME LEFT: 172798.40
 STEP:  14 TIME =     0.09 SECS, INTEGRAL =      1.55 TIME LEFT: 172798.30
 STEP:  15 TIME =     0.09 SECS, INTEGRAL =      1.63 TIME LEFT: 172798.22
 STEP:  16 TIME =     0.09 SECS, INTEGRAL =      1.73 TIME LEFT: 172798.12
 STEP:  17 TIME =     0.09 SECS, INTEGRAL =      1.82 TIME LEFT: 172798.03
 STEP:  18 TIME =     0.09 SECS, INTEGRAL =      1.91 TIME LEFT: 172797.94
 STEP:  19 TIME =     0.09 SECS, INTEGRAL =      2.01 TIME LEFT: 172797.84
 STEP:  20 TIME =     0.09 SECS, INTEGRAL =      2.10 TIME LEFT: 172797.75
 STEP:  21 TIME =     0.09 SECS, INTEGRAL =      2.20 TIME LEFT: 172797.66
 STEP:  22 TIME =     0.09 SECS, INTEGRAL =      2.29 TIME LEFT: 172797.56
 STEP:  23 TIME =     0.09 SECS, INTEGRAL =      2.38 TIME LEFT: 172797.47
 STEP:  24 TIME =     0.09 SECS, INTEGRAL =      2.47 TIME LEFT: 172797.38
 STEP:  25 TIME =     0.09 SECS, INTEGRAL =      2.55 TIME LEFT: 172797.30
 STEP:  26 TIME =     0.09 SECS, INTEGRAL =      2.64 TIME LEFT: 172797.21
 STEP:  27 TIME =     0.09 SECS, INTEGRAL =      2.73 TIME LEFT: 172797.12
 STEP:  28 TIME =     0.09 SECS, INTEGRAL =      2.82 TIME LEFT: 172797.03
 STEP:  29 TIME =     0.08 SECS, INTEGRAL =      2.90 TIME LEFT: 172796.95
 STEP:  30 TIME =     0.09 SECS, INTEGRAL =      2.98 TIME LEFT: 172796.87
 STEP:  31 TIME =     0.09 SECS, INTEGRAL =      3.08 TIME LEFT: 172796.77
 STEP:  32 TIME =     0.09 SECS, INTEGRAL =      3.17 TIME LEFT: 172796.68
 STEP:  33 TIME =     0.09 SECS, INTEGRAL =      3.27 TIME LEFT: 172796.59
 STEP:  34 TIME =     0.09 SECS, INTEGRAL =      3.36 TIME LEFT: 172796.49
 STEP:  35 TIME =     0.09 SECS, INTEGRAL =      3.45 TIME LEFT: 172796.40
 STEP:  36 TIME =     0.09 SECS, INTEGRAL =      3.55 TIME LEFT: 172796.30
 STEP:  37 TIME =     0.09 SECS, INTEGRAL =      3.64 TIME LEFT: 172796.21
 STEP:  38 TIME =     0.09 SECS, INTEGRAL =      3.73 TIME LEFT: 172796.12
 STEP:  39 TIME =     0.09 SECS, INTEGRAL =      3.83 TIME LEFT: 172796.02
 STEP:  40 TIME =     0.08 SECS, INTEGRAL =      3.91 TIME LEFT: 172795.95
 STEP:  41 TIME =     0.09 SECS, INTEGRAL =      3.99 TIME LEFT: 172795.86
 STEP:  42 TIME =     0.09 SECS, INTEGRAL =      4.09 TIME LEFT: 172795.77
 STEP:  43 TIME =     0.09 SECS, INTEGRAL =      4.17 TIME LEFT: 172795.68
 STEP:  44 TIME =     0.08 SECS, INTEGRAL =      4.25 TIME LEFT: 172795.60
 STEP:  45 TIME =     0.09 SECS, INTEGRAL =      4.34 TIME LEFT: 172795.52
 STEP:  46 TIME =     0.09 SECS, INTEGRAL =      4.42 TIME LEFT: 172795.43
 STEP:  47 TIME =     0.09 SECS, INTEGRAL =      4.51 TIME LEFT: 172795.34
 STEP:  48 TIME =     0.10 SECS, INTEGRAL =      4.61 TIME LEFT: 172795.24
 STEP:  49 TIME =     0.09 SECS, INTEGRAL =      4.70 TIME LEFT: 172795.16
 STEP:  50 TIME =     0.08 SECS, INTEGRAL =      4.77 TIME LEFT: 172795.08
 STEP:  51 TIME =     0.09 SECS, INTEGRAL =      4.87 TIME LEFT: 172794.98
 STEP:  52 TIME =     0.09 SECS, INTEGRAL =      4.95 TIME LEFT: 172794.90
 STEP:  53 TIME =     0.09 SECS, INTEGRAL =      5.05 TIME LEFT: 172794.80
 STEP:  54 TIME =     0.09 SECS, INTEGRAL =      5.14 TIME LEFT: 172794.71
 STEP:  55 TIME =     0.09 SECS, INTEGRAL =      5.23 TIME LEFT: 172794.62
 STEP:  56 TIME =     0.09 SECS, INTEGRAL =      5.31 TIME LEFT: 172794.54
 STEP:  57 TIME =     0.09 SECS, INTEGRAL =      5.40 TIME LEFT: 172794.45
 STEP:  58 TIME =     0.09 SECS, INTEGRAL =      5.49 TIME LEFT: 172794.36
 STEP:  59 TIME =     0.09 SECS, INTEGRAL =      5.59 TIME LEFT: 172794.27
 STEP:  60 TIME =     0.10 SECS, INTEGRAL =      5.69 TIME LEFT: 172794.16
 STEP:  61 TIME =     0.10 SECS, INTEGRAL =      5.79 TIME LEFT: 172794.06
 STEP:  62 TIME =     0.09 SECS, INTEGRAL =      5.88 TIME LEFT: 172793.97
 STEP:  63 TIME =     0.10 SECS, INTEGRAL =      5.98 TIME LEFT: 172793.87
 STEP:  64 TIME =     0.10 SECS, INTEGRAL =      6.09 TIME LEFT: 172793.77
 STEP:  65 TIME =     0.09 SECS, INTEGRAL =      6.18 TIME LEFT: 172793.67
 STEP:  66 TIME =     0.09 SECS, INTEGRAL =      6.27 TIME LEFT: 172793.58
 STEP:  67 TIME =     0.09 SECS, INTEGRAL =      6.37 TIME LEFT: 172793.48
 STEP:  68 TIME =     0.09 SECS, INTEGRAL =      6.46 TIME LEFT: 172793.39
 STEP:  69 TIME =     0.09 SECS, INTEGRAL =      6.55 TIME LEFT: 172793.30
 STEP:  70 TIME =     0.09 SECS, INTEGRAL =      6.64 TIME LEFT: 172793.21
 STEP:  71 TIME =     0.09 SECS, INTEGRAL =      6.73 TIME LEFT: 172793.12
 STEP:  72 TIME =     0.09 SECS, INTEGRAL =      6.83 TIME LEFT: 172793.02
 STEP:  73 TIME =     0.09 SECS, INTEGRAL =      6.92 TIME LEFT: 172792.93
 STEP:  74 TIME =     0.10 SECS, INTEGRAL =      7.02 TIME LEFT: 172792.83
 STEP:  75 TIME =     0.09 SECS, INTEGRAL =      7.12 TIME LEFT: 172792.73
 STEP:  76 TIME =     0.10 SECS, INTEGRAL =      7.22 TIME LEFT: 172792.63
 STEP:  77 TIME =     0.09 SECS, INTEGRAL =      7.30 TIME LEFT: 172792.55
 STEP:  78 TIME =     0.10 SECS, INTEGRAL =      7.41 TIME LEFT: 172792.45
 STEP:  79 TIME =     0.09 SECS, INTEGRAL =      7.50 TIME LEFT: 172792.35
 STEP:  80 TIME =     0.08 SECS, INTEGRAL =      7.58 TIME LEFT: 172792.27
 STEP:  81 TIME =     0.09 SECS, INTEGRAL =      7.67 TIME LEFT: 172792.18
 STEP:  82 TIME =     0.09 SECS, INTEGRAL =      7.76 TIME LEFT: 172792.09
 STEP:  83 TIME =     0.09 SECS, INTEGRAL =      7.84 TIME LEFT: 172792.01
 STEP:  84 TIME =     0.09 SECS, INTEGRAL =      7.93 TIME LEFT: 172791.92
 STEP:  85 TIME =     0.08 SECS, INTEGRAL =      8.01 TIME LEFT: 172791.84
 STEP:  86 TIME =     0.09 SECS, INTEGRAL =      8.09 TIME LEFT: 172791.76
 STEP:  87 TIME =     0.08 SECS, INTEGRAL =      8.17 TIME LEFT: 172791.68
 STEP:  88 TIME =     0.09 SECS, INTEGRAL =      8.27 TIME LEFT: 172791.59
 STEP:  89 TIME =     0.09 SECS, INTEGRAL =      8.36 TIME LEFT: 172791.49
 STEP:  90 TIME =     0.08 SECS, INTEGRAL =      8.44 TIME LEFT: 172791.41
 STEP:  91 TIME =     0.09 SECS, INTEGRAL =      8.53 TIME LEFT: 172791.32
 STEP:  92 TIME =     0.09 SECS, INTEGRAL =      8.62 TIME LEFT: 172791.23
 STEP:  93 TIME =     0.09 SECS, INTEGRAL =      8.72 TIME LEFT: 172791.13
 STEP:  94 TIME =     0.09 SECS, INTEGRAL =      8.81 TIME LEFT: 172791.04
 STEP:  95 TIME =     0.09 SECS, INTEGRAL =      8.91 TIME LEFT: 172790.95
 STEP:  96 TIME =     0.09 SECS, INTEGRAL =      9.00 TIME LEFT: 172790.85
 STEP:  97 TIME =     0.11 SECS, INTEGRAL =      9.11 TIME LEFT: 172790.74
 STEP:  98 TIME =     0.09 SECS, INTEGRAL =      9.20 TIME LEFT: 172790.65
 STEP:  99 TIME =     0.09 SECS, INTEGRAL =      9.30 TIME LEFT: 172790.55
 STEP: 100 TIME =     0.09 SECS, INTEGRAL =      9.38 TIME LEFT: 172790.47
 STEP: 101 TIME =     0.09 SECS, INTEGRAL =      9.47 TIME LEFT: 172790.38
 STEP: 102 TIME =     0.09 SECS, INTEGRAL =      9.55 TIME LEFT: 172790.30
 STEP: 103 TIME =     0.09 SECS, INTEGRAL =      9.64 TIME LEFT: 172790.21
 STEP: 104 TIME =     0.08 SECS, INTEGRAL =      9.72 TIME LEFT: 172790.13
 STEP: 105 TIME =     0.09 SECS, INTEGRAL =      9.80 TIME LEFT: 172790.05
 STEP: 106 TIME =     0.09 SECS, INTEGRAL =      9.90 TIME LEFT: 172789.95
 STEP: 107 TIME =     0.09 SECS, INTEGRAL =      9.98 TIME LEFT: 172789.87
 STEP: 108 TIME =     0.09 SECS, INTEGRAL =     10.08 TIME LEFT: 172789.77
 STEP: 109 TIME =     0.09 SECS, INTEGRAL =     10.16 TIME LEFT: 172789.69
 STEP: 110 TIME =     0.09 SECS, INTEGRAL =     10.25 TIME LEFT: 172789.60
 STEP: 111 TIME =     0.10 SECS, INTEGRAL =     10.35 TIME LEFT: 172789.50
 STEP: 112 TIME =     0.09 SECS, INTEGRAL =     10.45 TIME LEFT: 172789.41
 STEP: 113 TIME =     0.09 SECS, INTEGRAL =     10.53 TIME LEFT: 172789.32
 STEP: 114 TIME =     0.10 SECS, INTEGRAL =     10.63 TIME LEFT: 172789.22
 STEP: 115 TIME =     0.09 SECS, INTEGRAL =     10.72 TIME LEFT: 172789.13
 STEP: 116 TIME =     0.09 SECS, INTEGRAL =     10.80 TIME LEFT: 172789.05
 STEP: 117 TIME =     0.09 SECS, INTEGRAL =     10.89 TIME LEFT: 172788.96
 STEP: 118 TIME =     0.09 SECS, INTEGRAL =     10.98 TIME LEFT: 172788.88
 STEP: 119 TIME =     0.09 SECS, INTEGRAL =     11.06 TIME LEFT: 172788.79
 STEP: 120 TIME =     0.09 SECS, INTEGRAL =     11.15 TIME LEFT: 172788.70

(To convert to Hartree/Bohr^2, multiply by (10^(-21) x N x a0^2)/(4.184 x 627.51) =  0.0642)


           FORCE MATRIX IN MILLIDYNES/ANGSTROM


                  O  1       C  2       C  3       C  4       C  5       C  6
 ------------------------------------------------------------------------------
     O    1   9.370642
     C    2   7.408527  15.360119
     C    3   1.803454   3.973815  14.694777
     C    4   0.435229   1.947133   7.059820  14.856886
     C    5   0.311834   1.315839   1.975274   4.871281  14.453014
     C    6   0.215091   1.833409   1.245752   2.070859   6.515971  14.635678
     C    7   1.587503   4.227373   1.384762   1.096915   1.834576   4.876951
     H    8   0.077202   0.662829   3.543191   0.711979   0.120245   0.046007
     H    9   0.028877   0.136827   0.686843   3.500391   0.643137   0.078645
     H   10   0.034819   0.038069   0.070483   0.669791   3.538460   0.721010
     C   11   0.101325   0.622400   0.101310   0.071386   0.107896   0.763944
     H   12   0.689424   0.897455   0.314337   0.340580   0.402508   0.739873
     C   13   0.097209   0.085104   0.016271   0.013504   0.020790   0.060234
     H   14   0.018560   0.032139   0.017564   0.015108   0.018919   0.046710
     H   15   0.016887   0.041938   0.016711   0.009895   0.015512   0.032486
     C   16   0.075608   0.057283   0.021786   0.019024   0.025313   0.021297
     H   17   0.083750   0.104591   0.026531   0.018227   0.016482   0.012003
     H   18   0.019576   0.015906   0.005739   0.003879   0.005972   0.006533
     H   19   0.019081   0.011898   0.004688   0.004012   0.006706   0.007025
     O   20   0.631264   0.645172   0.263471   0.270530   0.310746   0.394343
     C   21   0.674205   0.587239   0.232072   0.215450   0.234806   0.267861
     C   22   0.211898   0.202525   0.080578   0.082442   0.095773   0.112789
     C   23   0.218934   0.187278   0.072146   0.063801   0.067314   0.070519
     C   24   0.261263   0.205923   0.077686   0.060969   0.059022   0.054600
     C   25   0.346927   0.247778   0.086431   0.059664   0.051976   0.041108
     C   26   1.453673   0.782497   0.258961   0.158162   0.127283   0.093805
     H   27   0.020073   0.013956   0.006354   0.004069   0.005073   0.005931
     H   28   0.014323   0.007826   0.002942   0.001483   0.003430   0.005164
     H   29   0.017614   0.010165   0.003733   0.000785   0.003121   0.004637
     H   30   0.015278   0.006390   0.004639   0.004901   0.006388   0.007201
     C   31   0.122328   0.075733   0.034240   0.003851   0.008687   0.008577
     H   32   1.224694   1.337915   0.374476   0.215901   0.165831   0.111730
     C   33   0.012742   0.012209   0.008306   0.006101   0.011035   0.012737
     H   34   0.017306   0.012836   0.007372   0.003359   0.003267   0.001879
     H   35   0.043897   0.094913   0.032944   0.027399   0.025081   0.020363
     C   36   0.031787   0.035183   0.035291   0.019942   0.030383   0.019326
     H   37   0.007984   0.007736   0.004212   0.002138   0.005005   0.004634
     H   38   0.036553   0.043592   0.023935   0.025174   0.026206   0.024299
     H   39   0.009679   0.009107   0.006987   0.005004   0.007498   0.004573
     H   40   0.020370   0.093251   0.029622   0.117672   0.679638   3.485205


                  C  7       H  8       H  9       H 10       C 11       H 12
 ------------------------------------------------------------------------------
     C    7  13.991484
     H    8   0.068802   4.379175
     H    9   0.025206   0.039108   4.326366
     H   10   0.099254   0.007577   0.026880   4.400024
     C   11   3.502669   0.011555   0.009380   0.009781  12.196256
     H   12   1.060816   0.023506   0.019303   0.022128   0.287720   1.473787
     C   13   0.623720   0.002327   0.001492   0.002411   3.858343   0.041205
     H   14   0.620142   0.002010   0.001056   0.001129   3.272631   0.042879
     H   15   0.653562   0.002091   0.001674   0.001203   3.214927   0.022890
     C   16   0.059900   0.003450   0.002081   0.002773   0.834733   0.063730
     H   17   0.030336   0.001962   0.000597   0.000917   0.609899   0.016568
     H   18   0.016601   0.000927   0.000662   0.000963   0.065372   0.021419
     H   19   0.025833   0.001164   0.000697   0.000887   0.141305   0.013205
     O   20   1.287922   0.017990   0.013051   0.013806   0.075000   1.498361
     C   21   0.652756   0.013834   0.008151   0.008116   0.043831   1.557107
     C   22   0.266828   0.008245   0.004534   0.004759   0.011575   0.462831
     C   23   0.163425   0.004715   0.001565   0.001164   0.005817   0.277063
     C   24   0.127938   0.004072   0.001367   0.002234   0.006552   0.212160
     C   25   0.112528   0.003136   0.002042   0.003402   0.008361   0.181367
     C   26   0.297449   0.015721   0.009217   0.011915   0.029439   0.458089
     H   27   0.015427   0.000751   0.000661   0.001078   0.002611   0.026266
     H   28   0.011492   0.000800   0.000630   0.000819   0.001154   0.020367
     H   29   0.009704   0.001008   0.000700   0.000873   0.001113   0.013716
     H   30   0.013871   0.001823   0.000470   0.000462   0.000809   0.021058
     C   31   0.025898   0.006509   0.002161   0.001963   0.002331   0.033461
     H   32   0.410758   0.024768   0.012599   0.016203   0.037250   0.554459
     C   33   0.021215   0.002065   0.001083   0.001400   0.001192   0.035449
     H   34   0.005146   0.002139   0.000705   0.000703   0.000658   0.007086
     H   35   0.033571   0.019416   0.002183   0.001908   0.002168   0.046307
     C   36   0.028767   0.005769   0.004039   0.004971   0.002185   0.041571
     H   37   0.008614   0.001149   0.000727   0.000915   0.000381   0.014475
     H   38   0.030456   0.005705   0.006347   0.003486   0.002185   0.043947
     H   39   0.009827   0.001433   0.001109   0.002120   0.000686   0.012498
     H   40   0.660421   0.012703   0.012789   0.036687   0.034503   0.035442


                  C 13       H 14       H 15       C 16       H 17       H 18
 ------------------------------------------------------------------------------
     C   13  16.047818
     H   14   0.650629   4.238868
     H   15   0.669017   0.567820   4.188030
     C   16   9.660094   0.027932   0.040142  15.116945
     H   17   3.420552   0.048984   0.025543   0.708882   4.232839
     H   18   0.743670   0.027860   0.009434   3.559150   0.144833   4.364679
     H   19   0.749842   0.003546   0.019654   3.559556   0.058785   0.572112
     O   20   0.040599   0.019435   0.014977   0.075817   0.008836   0.020216
     C   21   0.041937   0.028611   0.010561   0.083985   0.013817   0.032966
     C   22   0.014253   0.014073   0.005656   0.070872   0.010067   0.021615
     C   23   0.006455   0.008772   0.002999   0.034771   0.008557   0.014144
     C   24   0.010793   0.006710   0.002169   0.038174   0.009947   0.012620
     C   25   0.011066   0.005081   0.001315   0.029009   0.008488   0.009537
     C   26   0.032274   0.011967   0.005309   0.063105   0.019012   0.019060
     H   27   0.003780   0.002239   0.000857   0.012764   0.002128   0.008285
     H   28   0.001304   0.000881   0.000630   0.006524   0.001025   0.002203
     H   29   0.001595   0.000784   0.000661   0.006432   0.001158   0.001634
     H   30   0.001483   0.000794   0.000570   0.005590   0.001722   0.001696
     C   31   0.001854   0.001225   0.000783   0.006006   0.001773   0.001683
     H   32   0.043951   0.013064   0.007927   0.072880   0.040931   0.020908
     C   33   0.001330   0.000733   0.000410   0.003078   0.000729   0.000954
     H   34   0.000518   0.000282   0.000302   0.001429   0.000543   0.000443
     H   35   0.002710   0.001044   0.000480   0.004543   0.001142   0.001199
     C   36   0.001949   0.001157   0.000846   0.003918   0.000955   0.001352
     H   37   0.000541   0.000280   0.000260   0.001118   0.000299   0.000401
     H   38   0.002214   0.000831   0.000437   0.003338   0.000641   0.000921
     H   39   0.000267   0.000478   0.000392   0.001636   0.000431   0.000605
     H   40   0.002529   0.023350   0.014137   0.002357   0.001318   0.001103


                  H 19       O 20       C 21       C 22       C 23       C 24
 ------------------------------------------------------------------------------
     H   19   4.369037
     O   20   0.016348   9.317679
     C   21   0.023639   6.793719  15.111875
     C   22   0.016556   1.849594   4.260117  14.989318
     C   23   0.008759   0.480225   1.606940   7.577866  14.990384
     C   24   0.011666   0.335319   0.681337   1.522725   4.530583  15.054501
     C   25   0.006912   0.276272   1.003339   0.705072   1.568504   7.830957
     C   26   0.015908   1.251271   3.820439   0.806665   0.434658   1.163301
     H   27   0.002498   0.053810   0.691223   3.492935   0.706361   0.121169
     H   28   0.001993   0.030567   0.160164   0.665066   3.487665   0.618758
     H   29   0.002914   0.023154   0.026800   0.061531   0.660134   3.505440
     H   30   0.001694   0.031921   0.084861   0.051275   0.144136   0.662736
     C   31   0.001501   0.090903   0.667044   0.086374   0.076335   0.097959
     H   32   0.020519   0.598554   1.113248   0.194229   0.223407   0.295371
     C   33   0.000871   0.055675   0.074218   0.020546   0.009392   0.013573
     H   34   0.000499   0.013183   0.054618   0.019235   0.015290   0.015951
     H   35   0.001147   0.039410   0.053548   0.016943   0.014232   0.017315
     C   36   0.001221   0.054111   0.044635   0.018609   0.015865   0.019270
     H   37   0.000383   0.013697   0.036270   0.016453   0.010048   0.009207
     H   38   0.000901   0.028918   0.026736   0.009928   0.006032   0.005421
     H   39   0.000529   0.012215   0.016977   0.007264   0.003814   0.005801
     H   40   0.000688   0.013674   0.006328   0.003632   0.001961   0.002651


                  C 25       C 26       H 27       H 28       H 29       H 30
 ------------------------------------------------------------------------------
     C   25  14.985160
     C   26   3.995238  12.341799
     H   27   0.026690   0.043789   4.322244
     H   28   0.067810   0.036146   0.041904   4.270703
     H   29   0.722905   0.114086   0.008193   0.028094   4.345802
     H   30   3.474224   0.621687   0.013140   0.016519   0.042819   4.257744
     C   31   0.699692   2.712047   0.008162   0.004060   0.015446   0.018277
     H   32   0.887432   0.900626   0.025596   0.021033   0.027215   0.047893
     C   33   0.031920   0.652356   0.003489   0.002036   0.003065   0.004248
     H   34   0.082715   0.617421   0.001260   0.001115   0.001966   0.027747
     H   35   0.036010   0.584354   0.001879   0.001335   0.002138   0.004458
     C   36   0.018693   0.044881   0.003960   0.001936   0.002332   0.001641
     H   37   0.008325   0.016348   0.002751   0.001175   0.001164   0.001404
     H   38   0.004196   0.031305   0.001550   0.000840   0.001172   0.001021
     H   39   0.006334   0.028524   0.002016   0.001162   0.001286   0.000992
     H   40   0.002958   0.007211   0.001272   0.000543   0.000512   0.000229


                  C 31       H 32       C 33       H 34       H 35       C 36
 ------------------------------------------------------------------------------
     C   31  11.722593
     H   32   0.585250   1.666840
     C   33   3.850289   0.024128  16.075134
     H   34   3.274989   0.031728   0.659795   4.219772
     H   35   3.217036   0.100872   0.634827   0.567461   4.161793
     C   36   0.851324   0.024461   9.731669   0.039746   0.028253  15.156565
     H   37   0.617439   0.009271   3.479130   0.025423   0.047907   0.737842
     H   38   0.064718   0.028815   0.724544   0.008923   0.032674   3.509455
     H   39   0.141805   0.009863   0.730720   0.019605   0.004964   3.551094
     H   40   0.001391   0.008626   0.000567   0.000507   0.001720   0.002638


                  H 37       H 38       H 39       H 40
 ------------------------------------------------------
     H   37   4.312592
     H   38   0.145825   4.285899
     H   39   0.058431   0.562907   4.335648
     H   40   0.000623   0.001819   0.001047   4.321574


          HEAT OF FORMATION =      20.121082 KCALS/MOLE

          ZERO POINT ENERGY     192.226 KCAL/MOL

         NOTE: SYSTEM IS NOT A GROUND STATE, THEREFORE ZERO POINT
         ENERGY IS NOT MEANINGFULL. ZERO POINT ENERGY PRINTED
         DOES NOT INCLUDE THE  1 IMAGINARY FREQUENCIES


           NORMAL COORDINATE ANALYSIS (Total motion = 1 Angstrom)


   Root No.       1         2         3         4         5         6         7         8

                 1 A       2 A       3 A       4 A       5 A       6 A       7 A       8 A   

                -948.3      27.4      38.2      56.5      66.8      74.7      84.7     101.2
  
           1   -0.0229    0.0075    0.0030    0.0024   -0.0018   -0.0059   -0.0074   -0.0088
           2   -0.0098    0.0121   -0.0015    0.0198    0.0027   -0.0090   -0.0157    0.0067
           3    0.0212    0.0144   -0.0123    0.0053    0.0027   -0.0026   -0.0203   -0.0148
           4    0.0258    0.0074    0.0030    0.0026   -0.0021   -0.0060   -0.0079   -0.0091
           5   -0.0038    0.0033   -0.0024    0.0101   -0.0002   -0.0085   -0.0074    0.0038
           6    0.0093    0.0085   -0.0087    0.0027   -0.0031    0.0007   -0.0084   -0.0068
           7   -0.0102    0.0160    0.0055    0.0121   -0.0005   -0.0063   -0.0134   -0.0045
           8   -0.0107   -0.0013   -0.0041    0.0048   -0.0007   -0.0082   -0.0046    0.0011
           9    0.0010    0.0010    0.0124    0.0113   -0.0237    0.0106    0.0021    0.0000
          10    0.0083    0.0173    0.0054    0.0132    0.0000   -0.0071   -0.0157   -0.0072
          11   -0.0059   -0.0101   -0.0090   -0.0066   -0.0001   -0.0085    0.0001   -0.0034
          12    0.0003   -0.0077    0.0180    0.0067   -0.0323    0.0164    0.0189    0.0246
          13   -0.0031    0.0104    0.0025    0.0051    0.0003   -0.0064   -0.0123   -0.0141
          14    0.0108   -0.0149   -0.0126   -0.0136    0.0009   -0.0091    0.0027   -0.0056
          15    0.0013   -0.0083    0.0018   -0.0061   -0.0226    0.0094    0.0219    0.0375
          16   -0.0148    0.0016   -0.0001   -0.0047   -0.0012   -0.0052   -0.0054   -0.0158
          17   -0.0049   -0.0107   -0.0106   -0.0081    0.0009   -0.0089   -0.0002   -0.0040
          18    0.0007    0.0002   -0.0177   -0.0126   -0.0017   -0.0004    0.0089    0.0217
          19    0.0141   -0.0003    0.0008   -0.0062   -0.0034   -0.0055   -0.0036   -0.0141
          20    0.0141   -0.0017   -0.0047    0.0035   -0.0001   -0.0086   -0.0049    0.0010
          21   -0.0522    0.0084   -0.0218   -0.0081    0.0107   -0.0016   -0.0020    0.0033
          22   -0.0033    0.0208    0.0084    0.0182   -0.0011   -0.0060   -0.0150    0.0015
          23   -0.0062    0.0023   -0.0003    0.0107   -0.0023   -0.0074   -0.0066    0.0030
          24    0.0062    0.0029    0.0224    0.0212   -0.0310    0.0131   -0.0032   -0.0119
          25   -0.0056    0.0239    0.0067    0.0202    0.0013   -0.0079   -0.0196   -0.0041
          26    0.0005   -0.0138   -0.0097   -0.0103   -0.0008   -0.0080    0.0024   -0.0050
          27   -0.0007   -0.0139    0.0346    0.0127   -0.0472    0.0256    0.0295    0.0344
          28   -0.0026    0.0118    0.0024    0.0063    0.0015   -0.0067   -0.0143   -0.0167
          29   -0.0042   -0.0215   -0.0175   -0.0230    0.0023   -0.0093    0.0070   -0.0091
          30    0.0033   -0.0149    0.0047   -0.0101   -0.0314    0.0121    0.0336    0.0572
          31   -0.0012   -0.0106   -0.0059   -0.0152   -0.0053   -0.0043   -0.0030   -0.0167
          32    0.0030    0.0001   -0.0009    0.0106   -0.0058   -0.0088   -0.0041    0.0005
          33    0.0087    0.0143   -0.0232   -0.0173    0.0264   -0.0028   -0.0050    0.0079
          34   -0.0496    0.0046    0.0010   -0.0005    0.0103    0.0050    0.0066    0.0092
          35   -0.0277    0.0078   -0.0017    0.0018    0.0172    0.0044   -0.0024    0.0152
          36    0.3359    0.0086   -0.0115   -0.0057    0.0042   -0.0046   -0.0036    0.0070
          37    0.0002   -0.0112   -0.0067   -0.0156   -0.0052   -0.0038   -0.0043   -0.0164
          38    0.0005    0.0175    0.0038   -0.0055   -0.0016   -0.0099    0.0030   -0.0022
          39    0.0010   -0.0031   -0.0108    0.0371    0.0139   -0.0123    0.0030    0.0037
          40   -0.0004   -0.0278   -0.0030    0.0169   -0.0140   -0.0081   -0.0030   -0.0181
          41    0.0111    0.0008   -0.0047    0.0006    0.0024   -0.0078   -0.0061    0.0025
          42    0.0160    0.0270   -0.0301   -0.0521    0.0430    0.0012   -0.0079    0.0115
          43   -0.0007    0.0001   -0.0146   -0.0542    0.0031    0.0014   -0.0054   -0.0153
          44   -0.0099   -0.0144    0.0026    0.0380   -0.0238   -0.0107   -0.0018   -0.0037
          45    0.0066    0.0199   -0.0267   -0.0349    0.0317   -0.0006   -0.0057    0.0087
          46   -0.0002   -0.0299   -0.0054    0.0210   -0.0130   -0.0054   -0.0116   -0.0148
          47    0.0001    0.0280    0.0130   -0.0335   -0.0022   -0.0243    0.0489   -0.0211
          48    0.0001   -0.0081    0.0041    0.0360    0.0043   -0.0350    0.0620   -0.0221
          49    0.0020    0.0049   -0.0085   -0.0478    0.0018   -0.0020    0.0003   -0.0176
          50   -0.0009    0.0208    0.0004    0.0060    0.0009    0.0006   -0.0278    0.0103
          51   -0.0035   -0.0118   -0.0137    0.0762    0.0114   -0.0009   -0.0381    0.0195
          52   -0.0005   -0.0466   -0.0035    0.0551   -0.0206   -0.0077   -0.0166   -0.0145
          53    0.0002    0.0245    0.0167   -0.0449   -0.0054   -0.0343    0.0785   -0.0338
          54    0.0001   -0.0001    0.0071   -0.0031    0.0061   -0.0457    0.1021   -0.0380
          55    0.0000   -0.0298   -0.0062    0.0190   -0.0126   -0.0047   -0.0128   -0.0143
          56   -0.0013    0.0409    0.0166   -0.0465    0.0009   -0.0259    0.0575   -0.0239
          57   -0.0018   -0.0207    0.0133    0.0753   -0.0054   -0.0438    0.0725   -0.0283
          58    0.0140    0.0072    0.0065    0.0010    0.0100    0.0039    0.0082    0.0165
          59   -0.0057    0.0064    0.0058    0.0052    0.0141    0.0033   -0.0026    0.0153
          60    0.0019    0.0104   -0.0092   -0.0029    0.0081   -0.0030    0.0003    0.0104
          61   -0.0328    0.0052    0.0073    0.0002    0.0075    0.0039    0.0069    0.0143
          62    0.0111   -0.0018    0.0057    0.0032    0.0061    0.0017   -0.0042    0.0093
          63   -0.0007    0.0066   -0.0037   -0.0044   -0.0000   -0.0043   -0.0049    0.0040
          64    0.0070    0.0106    0.0178    0.0003    0.0044    0.0004    0.0018    0.0177
          65    0.0047   -0.0057    0.0110   -0.0004   -0.0050   -0.0071   -0.0065    0.0082
          66   -0.0099    0.0056    0.0132   -0.0096   -0.0193   -0.0207   -0.0128    0.0045
          67   -0.0057    0.0095    0.0190   -0.0008    0.0028    0.0013    0.0002    0.0162
          68    0.0053   -0.0168    0.0063   -0.0058   -0.0120   -0.0046   -0.0074   -0.0002
          69   -0.0019   -0.0019    0.0217   -0.0175   -0.0309   -0.0159   -0.0237   -0.0060
          70    0.0034    0.0027    0.0102   -0.0019    0.0041    0.0050    0.0044    0.0128
          71   -0.0060   -0.0248   -0.0044   -0.0065   -0.0057    0.0081   -0.0028   -0.0061
          72   -0.0009   -0.0090    0.0118   -0.0175   -0.0181    0.0080   -0.0203   -0.0140
          73    0.0146   -0.0031    0.0007   -0.0020    0.0060    0.0076    0.0090    0.0095
          74    0.0014   -0.0207   -0.0082   -0.0017    0.0041    0.0127    0.0013   -0.0027
          75   -0.0100   -0.0072   -0.0048   -0.0084    0.0024    0.0195   -0.0077   -0.0108
          76   -0.0000   -0.0026   -0.0002   -0.0011    0.0060    0.0059    0.0098    0.0102
          77   -0.0058   -0.0084   -0.0007    0.0035    0.0070    0.0065   -0.0018    0.0045
          78    0.0170    0.0019   -0.0105   -0.0010    0.0057    0.0073   -0.0049   -0.0049
          79    0.0023    0.0158    0.0243    0.0012    0.0041   -0.0021   -0.0009    0.0211
          80    0.0025    0.0006    0.0183    0.0004   -0.0077   -0.0160   -0.0081    0.0138
          81   -0.0090    0.0111    0.0191   -0.0094   -0.0258   -0.0375   -0.0116    0.0118
          82    0.0044    0.0137    0.0267   -0.0010    0.0006   -0.0008   -0.0042    0.0176
          83    0.0025   -0.0200    0.0104   -0.0096   -0.0220   -0.0119   -0.0111   -0.0024
          84    0.0042   -0.0031    0.0360   -0.0239   -0.0496   -0.0298   -0.0342   -0.0081
          85    0.0027    0.0025    0.0112   -0.0024    0.0035    0.0057    0.0035    0.0122
          86    0.0047   -0.0340   -0.0094   -0.0108   -0.0088    0.0134   -0.0023   -0.0129
          87   -0.0031   -0.0156    0.0175   -0.0243   -0.0244    0.0161   -0.0269   -0.0218
          88    0.0078   -0.0085   -0.0062   -0.0026    0.0063    0.0099    0.0123    0.0064
          89    0.0009   -0.0263   -0.0165   -0.0015    0.0090    0.0210    0.0057   -0.0064
          90    0.0001   -0.0121   -0.0141   -0.0067    0.0147    0.0370   -0.0020   -0.0148
          91    0.0011   -0.0180   -0.0072   -0.0068    0.0068    0.0147    0.0158    0.0044
          92   -0.0006   -0.0019    0.0040    0.0028    0.0067    0.0048   -0.0047    0.0084
          93   -0.0068    0.0037   -0.0133    0.0082    0.0034   -0.0007   -0.0062   -0.0070
          94    0.1151    0.0050   -0.0020    0.0031    0.0027   -0.0061    0.0032    0.0073
          95    0.1132   -0.0067   -0.0022    0.0129    0.0062    0.0035   -0.0060    0.0014
          96   -0.1815    0.0020   -0.0082    0.0004    0.0039    0.0057   -0.0045   -0.0037
          97   -0.0003   -0.0039   -0.0314   -0.0001   -0.0134    0.0124    0.0162    0.0047
          98   -0.0003    0.0108    0.0111    0.0019    0.0068    0.0094   -0.0069    0.0124
          99   -0.0013   -0.0103    0.0162    0.0002    0.0273    0.0025   -0.0068   -0.0063
         100    0.0002   -0.0216   -0.0174   -0.0078    0.0016    0.0184    0.0189    0.0013
         101   -0.0013   -0.0181    0.0146   -0.0072    0.0189    0.0134   -0.0015    0.0061
         102   -0.0060    0.0167   -0.0415    0.0180   -0.0189   -0.0042   -0.0049   -0.0095
         103    0.0028   -0.0375    0.0168   -0.0152    0.0294    0.0176    0.0167    0.0035
         104    0.0031    0.0082   -0.0088    0.0123   -0.0044   -0.0023   -0.0059    0.0081
         105   -0.0034    0.0027   -0.0127    0.0111    0.0048   -0.0042   -0.0065   -0.0075
         106   -0.0001   -0.0128   -0.0227   -0.0041   -0.0031    0.0006    0.0116    0.0131
         107   -0.0004    0.0327   -0.0037    0.0127   -0.0177    0.0658    0.0157   -0.0262
         108   -0.0003   -0.0220    0.0375   -0.0037    0.0416    0.0274    0.0042   -0.0221
         109   -0.0023    0.0143   -0.0567    0.0083   -0.0371    0.0200    0.0196   -0.0018
         110    0.0020    0.0011    0.0291   -0.0077    0.0272   -0.0321   -0.0269    0.0456
         111   -0.0008   -0.0096    0.0174   -0.0020    0.0300   -0.0155   -0.0155    0.0080
         112    0.0007   -0.0308    0.0015   -0.0127    0.0203   -0.0074    0.0086    0.0205
         113    0.0012    0.0424   -0.0216    0.0220   -0.0385    0.1045    0.0347   -0.0572
         114   -0.0010   -0.0231    0.0365   -0.0019    0.0392    0.0438    0.0126   -0.0347
         115   -0.0001   -0.0027   -0.0396    0.0008   -0.0176   -0.0018    0.0108    0.0130
         116    0.0022    0.0423    0.0015    0.0126   -0.0181    0.0742    0.0153   -0.0274
         117    0.0005   -0.0315    0.0572   -0.0092    0.0577    0.0315    0.0051   -0.0222
         118   -0.0052   -0.0047   -0.0019   -0.0112   -0.0021   -0.0049   -0.0019   -0.0188
         119    0.0031   -0.0147   -0.0124   -0.0129    0.0007   -0.0090    0.0021   -0.0057
         120    0.0035    0.0006   -0.0301   -0.0218    0.0065   -0.0059    0.0090    0.0266


   Root No.       9        10        11        12        13        14        15        16

                 9 A      10 A      11 A      12 A      13 A      14 A      15 A      16 A   

                 107.8     120.4     136.8     161.7     204.7     227.0     241.3     260.8
  
           1    0.0044    0.0046    0.0025    0.0022   -0.0052    0.0050    0.0143   -0.0027
           2   -0.0102    0.0174    0.0043   -0.0026    0.0015    0.0006   -0.0271    0.0288
           3   -0.0028   -0.0025   -0.0209   -0.0156    0.0096    0.0115   -0.0381   -0.0201
           4    0.0035    0.0048    0.0019    0.0025   -0.0050    0.0046    0.0130   -0.0041
           5   -0.0064    0.0108    0.0055   -0.0026   -0.0007    0.0002   -0.0060    0.0184
           6    0.0027   -0.0109   -0.0013   -0.0191    0.0120   -0.0072   -0.0220   -0.0216
           7    0.0013    0.0136   -0.0009    0.0048   -0.0016    0.0043    0.0008    0.0131
           8   -0.0048    0.0056    0.0078   -0.0050   -0.0026    0.0009   -0.0005    0.0118
           9    0.0206   -0.0326    0.0242   -0.0257    0.0105   -0.0113   -0.0118   -0.0078
          10    0.0019    0.0119   -0.0003    0.0032    0.0008    0.0019   -0.0008    0.0118
          11   -0.0029   -0.0003    0.0093   -0.0055   -0.0070    0.0039    0.0090   -0.0000
          12    0.0170   -0.0117    0.0167   -0.0063   -0.0076    0.0077    0.0041    0.0111
          13    0.0061    0.0006    0.0040   -0.0012    0.0005    0.0019    0.0053    0.0006
          14   -0.0026   -0.0009    0.0074   -0.0037   -0.0080    0.0046    0.0134   -0.0080
          15   -0.0018    0.0266   -0.0162    0.0169   -0.0117    0.0109   -0.0005   -0.0013
          16    0.0079   -0.0049    0.0034   -0.0009   -0.0043    0.0055    0.0146   -0.0136
          17   -0.0032    0.0010    0.0077   -0.0042   -0.0058    0.0035    0.0067    0.0006
          18   -0.0114    0.0273   -0.0189    0.0075    0.0039   -0.0093   -0.0145   -0.0195
          19    0.0081   -0.0015    0.0018    0.0029   -0.0058    0.0067    0.0188   -0.0130
          20   -0.0044    0.0082    0.0060   -0.0020   -0.0012    0.0010   -0.0014    0.0128
          21   -0.0059    0.0009    0.0008   -0.0158    0.0096   -0.0142   -0.0164   -0.0186
          22   -0.0008    0.0224   -0.0044    0.0084   -0.0000    0.0049   -0.0041    0.0245
          23   -0.0040    0.0063    0.0092   -0.0057   -0.0001   -0.0006   -0.0053    0.0193
          24    0.0332   -0.0599    0.0444   -0.0414    0.0177   -0.0215   -0.0169   -0.0077
          25   -0.0013    0.0180   -0.0034    0.0039    0.0037   -0.0003   -0.0087    0.0188
          26   -0.0011   -0.0038    0.0110   -0.0060   -0.0085    0.0050    0.0132   -0.0039
          27    0.0285   -0.0236    0.0342   -0.0077   -0.0181    0.0181    0.0178    0.0328
          28    0.0069   -0.0028    0.0069   -0.0046    0.0025   -0.0004    0.0039    0.0007
          29   -0.0021   -0.0053    0.0059   -0.0042   -0.0099    0.0055    0.0192   -0.0222
          30   -0.0078    0.0514   -0.0352    0.0391   -0.0245    0.0258    0.0049    0.0023
          31    0.0075   -0.0056   -0.0046    0.0043    0.0018    0.0013   -0.0062    0.0036
          32   -0.0088    0.0089   -0.0078   -0.0068    0.0071   -0.0049    0.0085   -0.0030
          33    0.0076    0.0052    0.0430   -0.0018   -0.0178    0.0072   -0.0130    0.0098
          34    0.0011   -0.0026    0.0063   -0.0075    0.0000   -0.0205   -0.0037   -0.0159
          35    0.0220    0.0065    0.0144    0.0243    0.0229    0.0047   -0.0172   -0.0018
          36    0.0017    0.0134    0.0074   -0.0006    0.0156   -0.0167    0.0238    0.0159
          37    0.0074   -0.0058   -0.0043    0.0044    0.0030    0.0004   -0.0103    0.0079
          38   -0.0039    0.0079   -0.0030   -0.0047   -0.0005    0.0027    0.0303   -0.0219
          39    0.0018    0.0143    0.0249   -0.0050   -0.0175    0.0110    0.0259   -0.0245
          40    0.0017   -0.0013   -0.0180    0.0010    0.0080   -0.0022    0.0031   -0.0057
          41   -0.0017    0.0083    0.0125    0.0002   -0.0037    0.0037   -0.0036    0.0202
          42    0.0208    0.0016    0.0791    0.0096   -0.0364    0.0210   -0.0371    0.0480
          43    0.0123   -0.0122    0.0066    0.0081    0.0018   -0.0010   -0.0407    0.0325
          44   -0.0238    0.0097   -0.0510   -0.0198    0.0334   -0.0253    0.0171   -0.0372
          45    0.0114    0.0026    0.0525    0.0013   -0.0215    0.0093   -0.0268    0.0243
          46    0.0008   -0.0005   -0.0165    0.0013    0.0126   -0.0051   -0.0104    0.0116
          47    0.0056    0.0001   -0.0099    0.0006    0.0025   -0.0016    0.0042   -0.0043
          48    0.0086    0.0088    0.0019   -0.0006   -0.0030   -0.0010   -0.0124    0.0057
          49    0.0131   -0.0107    0.0060    0.0070   -0.0022    0.0031   -0.0180    0.0134
          50   -0.0076    0.0135    0.0054   -0.0063   -0.0106    0.0132    0.0689   -0.0528
          51   -0.0072    0.0247    0.0260   -0.0091   -0.0247    0.0212    0.0760   -0.0648
          52   -0.0050    0.0047   -0.0290   -0.0016    0.0216   -0.0099   -0.0096    0.0137
          53    0.0091   -0.0068   -0.0201    0.0028    0.0146   -0.0131   -0.0429    0.0343
          54    0.0170   -0.0035   -0.0016    0.0040    0.0054   -0.0118   -0.0718    0.0518
          55    0.0009   -0.0008   -0.0155    0.0013    0.0129   -0.0056   -0.0133    0.0148
          56    0.0097   -0.0009   -0.0057    0.0028   -0.0079    0.0069    0.0286   -0.0308
          57    0.0048    0.0152   -0.0164   -0.0022    0.0022   -0.0014    0.0088   -0.0152
          58   -0.0028   -0.0013    0.0025   -0.0028    0.0105   -0.0217    0.0050   -0.0010
          59    0.0206   -0.0045    0.0031    0.0231    0.0454   -0.0008    0.0051    0.0016
          60   -0.0065   -0.0075   -0.0059   -0.0108    0.0440   -0.0258    0.0403    0.0214
          61   -0.0049   -0.0054   -0.0002   -0.0034   -0.0036   -0.0107   -0.0041   -0.0057
          62    0.0111   -0.0109   -0.0032    0.0147    0.0141    0.0098   -0.0067   -0.0083
          63   -0.0102   -0.0157   -0.0144   -0.0072    0.0081    0.0082    0.0199    0.0155
          64    0.0024   -0.0004    0.0021    0.0096    0.0029    0.0049   -0.0125   -0.0103
          65   -0.0073   -0.0164    0.0028    0.0117    0.0082    0.0146   -0.0083   -0.0084
          66   -0.0313   -0.0205   -0.0039   -0.0019    0.0025    0.0299    0.0097    0.0112
          67    0.0050    0.0042    0.0043    0.0106    0.0015    0.0001   -0.0153   -0.0130
          68   -0.0145   -0.0065    0.0105    0.0036   -0.0031   -0.0156   -0.0102   -0.0109
          69   -0.0160    0.0112    0.0107    0.0050   -0.0040   -0.0050   -0.0041   -0.0014
          70   -0.0007    0.0039    0.0020    0.0002   -0.0049   -0.0078   -0.0092   -0.0068
          71   -0.0019    0.0033    0.0070   -0.0045   -0.0049   -0.0269   -0.0004   -0.0037
          72    0.0237    0.0359    0.0048    0.0026    0.0040   -0.0187    0.0077    0.0049
          73   -0.0100   -0.0017   -0.0019   -0.0110   -0.0122   -0.0126   -0.0038   -0.0017
          74    0.0070   -0.0041   -0.0021   -0.0005    0.0001   -0.0021   -0.0025   -0.0041
          75    0.0319    0.0158   -0.0153   -0.0007    0.0045    0.0216    0.0097    0.0088
          76   -0.0136   -0.0059   -0.0017   -0.0104   -0.0158   -0.0148   -0.0018   -0.0004
          77    0.0115   -0.0104   -0.0045    0.0142    0.0003    0.0088   -0.0078   -0.0077
          78    0.0058   -0.0123   -0.0204    0.0038   -0.0088    0.0112    0.0039    0.0031
          79    0.0075    0.0002    0.0020    0.0172    0.0082    0.0186   -0.0180   -0.0136
          80   -0.0151   -0.0256    0.0029    0.0167    0.0133    0.0373   -0.0137   -0.0097
          81   -0.0596   -0.0439   -0.0035   -0.0040    0.0051    0.0594    0.0086    0.0152
          82    0.0115    0.0089    0.0068    0.0189    0.0061    0.0045   -0.0215   -0.0181
          83   -0.0292   -0.0059    0.0186    0.0026   -0.0108   -0.0242   -0.0185   -0.0163
          84   -0.0335    0.0168    0.0265    0.0117   -0.0119   -0.0149   -0.0231   -0.0149
          85    0.0018    0.0069    0.0030    0.0008   -0.0037   -0.0100   -0.0094   -0.0074
          86   -0.0015    0.0148    0.0097   -0.0153   -0.0090   -0.0478    0.0073    0.0023
          87    0.0449    0.0663    0.0147    0.0027    0.0111   -0.0459    0.0125    0.0059
          88   -0.0159   -0.0046   -0.0027   -0.0183   -0.0166   -0.0188    0.0002    0.0011
          89    0.0126   -0.0028   -0.0068   -0.0068    0.0001    0.0037    0.0019   -0.0000
          90    0.0577    0.0241   -0.0263   -0.0036    0.0135    0.0490    0.0131    0.0134
          91   -0.0123    0.0035    0.0032   -0.0171    0.0087    0.0153    0.0016    0.0065
          92    0.0142   -0.0090   -0.0109    0.0015   -0.0042    0.0062   -0.0081   -0.0091
          93   -0.0013   -0.0253   -0.0077    0.0477   -0.0270   -0.0194    0.0061    0.0050
          94   -0.0257   -0.0113   -0.0041   -0.0001   -0.0217   -0.0236    0.0028    0.0016
          95    0.0096   -0.0072   -0.0002    0.0370   -0.0129    0.0004   -0.0076   -0.0019
          96    0.0098   -0.0122   -0.0134    0.0089   -0.0118    0.0103    0.0169    0.0101
          97   -0.0085   -0.0075    0.0038    0.0062    0.0044    0.0098    0.0027    0.0065
          98    0.0161   -0.0075   -0.0279   -0.0302   -0.0370   -0.0032    0.0011    0.0080
          99   -0.0058   -0.0130   -0.0116    0.0157   -0.0276   -0.0140    0.0068    0.0091
         100   -0.0100    0.0054    0.0067   -0.0124    0.0237    0.0286    0.0018    0.0054
         101    0.0173    0.0070   -0.0138   -0.0301    0.0163    0.0366   -0.0052   -0.0047
         102   -0.0018   -0.0408    0.0011    0.0907   -0.0286   -0.0349    0.0027   -0.0016
         103   -0.0149    0.0165    0.0032   -0.0401    0.0203    0.0315    0.0030    0.0087
         104    0.0097   -0.0230   -0.0028    0.0376   -0.0166   -0.0202   -0.0129   -0.0146
         105   -0.0055   -0.0302   -0.0020    0.0627   -0.0297   -0.0310    0.0023    0.0008
         106   -0.0027   -0.0075   -0.0009   -0.0047    0.0042    0.0134    0.0007    0.0061
         107   -0.0172    0.0042   -0.0008   -0.0013   -0.0118    0.0004    0.0028    0.0046
         108   -0.0263    0.0044    0.0057    0.0049    0.0095    0.0085   -0.0011    0.0004
         109   -0.0096   -0.0158    0.0076    0.0333   -0.0004    0.0001    0.0055    0.0063
         110    0.0442   -0.0149   -0.0638   -0.0789   -0.0920   -0.0159    0.0129    0.0331
         111    0.0075   -0.0191   -0.0278    0.0000   -0.0551   -0.0225    0.0131    0.0210
         112   -0.0017    0.0006   -0.0042   -0.0328    0.0134    0.0277   -0.0034    0.0062
         113   -0.0430    0.0114    0.0352    0.0471    0.0431    0.0136   -0.0094   -0.0212
         114   -0.0386    0.0103    0.0219    0.0189    0.0394    0.0197   -0.0089   -0.0125
         115    0.0015   -0.0154   -0.0016    0.0143   -0.0052    0.0025    0.0035    0.0059
         116   -0.0186    0.0071   -0.0136   -0.0253   -0.0470   -0.0107    0.0164    0.0276
         117   -0.0312    0.0137    0.0042   -0.0204    0.0137    0.0188   -0.0017    0.0049
         118    0.0101   -0.0106    0.0059   -0.0020   -0.0079    0.0079    0.0228   -0.0203
         119   -0.0025   -0.0013    0.0082   -0.0041   -0.0080    0.0047    0.0119   -0.0049
         120   -0.0228    0.0487   -0.0347    0.0192    0.0072   -0.0163   -0.0234   -0.0317


   Root No.      17        18        19        20        21        22        23        24

                17 A      18 A      19 A      20 A      21 A      22 A      23 A      24 A   

                 288.1     319.6     351.3     375.6     384.3     423.0     441.8     452.2
  
           1    0.0064   -0.0013   -0.0262   -0.0086    0.0032   -0.0015   -0.0034   -0.0039
           2    0.0120   -0.0001    0.0317   -0.0179    0.0159    0.0054    0.0104   -0.0075
           3    0.0505    0.0107   -0.0053   -0.0035   -0.0081   -0.0086   -0.0051    0.0043
           4    0.0035   -0.0015   -0.0244   -0.0076    0.0036   -0.0008   -0.0002   -0.0011
           5   -0.0080   -0.0046   -0.0041    0.0011   -0.0012    0.0004   -0.0069    0.0041
           6   -0.0028    0.0021   -0.0083    0.0015   -0.0030   -0.0002    0.0128   -0.0118
           7   -0.0007   -0.0030   -0.0119   -0.0013    0.0018    0.0031   -0.0006    0.0014
           8   -0.0029   -0.0040   -0.0124   -0.0051    0.0014   -0.0009   -0.0090    0.0017
           9   -0.0360   -0.0016    0.0024   -0.0221   -0.0020   -0.0073   -0.0160   -0.0117
          10   -0.0115   -0.0041   -0.0118   -0.0042   -0.0004    0.0013   -0.0046   -0.0008
          11    0.0093   -0.0019   -0.0224   -0.0143    0.0075    0.0014   -0.0011   -0.0028
          12    0.0248    0.0023    0.0014    0.0167    0.0031    0.0085    0.0136    0.0195
          13   -0.0078   -0.0013   -0.0089    0.0043   -0.0027    0.0029    0.0028    0.0060
          14    0.0080   -0.0010   -0.0207   -0.0119    0.0045    0.0008    0.0014   -0.0042
          15    0.0196    0.0014   -0.0051   -0.0008   -0.0049   -0.0052   -0.0059   -0.0193
          16    0.0091    0.0023   -0.0152    0.0042   -0.0025   -0.0004    0.0042   -0.0012
          17    0.0048   -0.0018   -0.0143   -0.0090    0.0040    0.0021    0.0002   -0.0017
          18   -0.0404   -0.0028   -0.0016   -0.0183   -0.0000   -0.0021   -0.0058    0.0124
          19    0.0037    0.0011   -0.0139   -0.0007   -0.0031   -0.0021    0.0005   -0.0017
          20   -0.0115   -0.0038   -0.0006    0.0090   -0.0061    0.0006   -0.0030    0.0069
          21   -0.0101    0.0009   -0.0067    0.0210    0.0028    0.0118    0.0265    0.0074
          22   -0.0054   -0.0047   -0.0047    0.0124   -0.0035    0.0057   -0.0003    0.0083
          23   -0.0129   -0.0053   -0.0054   -0.0021   -0.0018   -0.0015   -0.0145    0.0059
          24   -0.0738   -0.0037    0.0111   -0.0540   -0.0015   -0.0205   -0.0495   -0.0140
          25   -0.0180   -0.0058   -0.0100   -0.0056   -0.0017   -0.0013   -0.0124   -0.0054
          26    0.0129   -0.0009   -0.0230   -0.0127    0.0079    0.0029    0.0033    0.0004
          27    0.0624    0.0050    0.0071    0.0437    0.0111    0.0232    0.0332    0.0667
          28   -0.0123   -0.0016   -0.0083    0.0053   -0.0014    0.0050    0.0059    0.0117
          29    0.0152    0.0020   -0.0226   -0.0099    0.0029   -0.0014    0.0039   -0.0061
          30    0.0486    0.0030   -0.0104   -0.0103   -0.0120   -0.0190   -0.0285   -0.0564
          31    0.0033    0.0043    0.0383   -0.0110    0.0091    0.0045    0.0019    0.0054
          32   -0.0166   -0.0037   -0.0195    0.0202   -0.0100    0.0023    0.0064    0.0075
          33   -0.0032   -0.0030    0.0035    0.0204   -0.0107   -0.0041   -0.0007   -0.0028
          34    0.0101   -0.0127   -0.0024    0.0090    0.0026    0.0173    0.0213   -0.0313
          35   -0.0078    0.0309   -0.0039    0.0029   -0.0297   -0.0137   -0.0295    0.0310
          36   -0.0364   -0.0112    0.0007    0.0099    0.0057    0.0190    0.0332   -0.0047
          37    0.0022    0.0039    0.0423   -0.0094    0.0091    0.0053    0.0027    0.0066
          38   -0.0092    0.0037    0.0309    0.0317   -0.0164   -0.0094   -0.0045   -0.0063
          39    0.0036    0.0045    0.0253   -0.0088    0.0048    0.0026    0.0018    0.0066
          40    0.0024    0.0055    0.0356   -0.0348    0.0249    0.0180    0.0147    0.0210
          41   -0.0117   -0.0050   -0.0085    0.0188   -0.0156   -0.0063   -0.0116    0.0018
          42    0.0037   -0.0059    0.0189    0.0374   -0.0307   -0.0260   -0.0347   -0.0221
          43    0.0002    0.0006    0.0423    0.0091   -0.0021   -0.0040   -0.0079   -0.0047
          44   -0.0276   -0.0006   -0.0362    0.0031    0.0139    0.0296    0.0474    0.0326
          45   -0.0022   -0.0043    0.0086    0.0296   -0.0179   -0.0113   -0.0109   -0.0105
          46   -0.0099    0.0005    0.0240    0.0318   -0.0152   -0.0084   -0.0048   -0.0076
          47   -0.0013    0.0031    0.0248    0.0054   -0.0011   -0.0011   -0.0006   -0.0007
          48    0.0019   -0.0007   -0.0083   -0.0032    0.0007   -0.0002   -0.0009   -0.0007
          49    0.0072    0.0044    0.0520   -0.0170    0.0137    0.0066    0.0030    0.0062
          50   -0.0022    0.0134    0.0947    0.0163   -0.0065   -0.0101   -0.0104   -0.0080
          51    0.0081    0.0154    0.0920   -0.0162    0.0100   -0.0013   -0.0069    0.0025
          52   -0.0209   -0.0021    0.0120    0.0756   -0.0408   -0.0249   -0.0147   -0.0255
          53   -0.0107   -0.0096   -0.0532    0.0337   -0.0180   -0.0045    0.0053   -0.0036
          54   -0.0013   -0.0144   -0.0956    0.0009   -0.0021    0.0072    0.0135    0.0082
          55   -0.0115   -0.0010    0.0162    0.0358   -0.0176   -0.0089   -0.0039   -0.0077
          56    0.0169    0.0157    0.0978   -0.0525    0.0341    0.0127   -0.0010    0.0119
          57    0.0046    0.0084    0.0440    0.0050   -0.0030   -0.0119   -0.0181   -0.0177
          58    0.0147   -0.0081    0.0033   -0.0036   -0.0088    0.0049   -0.0068   -0.0173
          59    0.0090    0.0323   -0.0051   -0.0080   -0.0170   -0.0077   -0.0171    0.0161
          60    0.0125   -0.0009    0.0008   -0.0004    0.0130    0.0128    0.0093   -0.0141
          61    0.0126   -0.0154    0.0031   -0.0011   -0.0069   -0.0028   -0.0107   -0.0082
          62   -0.0040   -0.0035   -0.0026    0.0016    0.0067   -0.0022    0.0140    0.0020
          63    0.0036   -0.0184    0.0004    0.0020    0.0088   -0.0148   -0.0171    0.0220
          64   -0.0040   -0.0086    0.0015   -0.0024   -0.0052   -0.0029    0.0087    0.0015
          65   -0.0028   -0.0113    0.0022   -0.0059   -0.0099   -0.0033    0.0207   -0.0146
          66   -0.0078   -0.0231    0.0056   -0.0081   -0.0102   -0.0173    0.0061    0.0071
          67   -0.0041   -0.0009   -0.0000    0.0009   -0.0005    0.0035    0.0078    0.0002
          68    0.0120    0.0056    0.0003   -0.0002   -0.0114    0.0103   -0.0095   -0.0087
          69   -0.0055    0.0282   -0.0048    0.0096    0.0115    0.0240   -0.0139   -0.0018
          70   -0.0021   -0.0108    0.0015    0.0024    0.0072   -0.0020    0.0045    0.0150
          71    0.0164   -0.0133    0.0029   -0.0040   -0.0078   -0.0156   -0.0013    0.0074
          72    0.0011   -0.0028   -0.0014   -0.0018    0.0070   -0.0246    0.0125    0.0082
          73    0.0043   -0.0191    0.0035    0.0022    0.0030    0.0035   -0.0079    0.0072
          74    0.0058   -0.0193    0.0036   -0.0045   -0.0132    0.0068   -0.0012   -0.0019
          75   -0.0097   -0.0246    0.0032   -0.0039   -0.0099    0.0218   -0.0028   -0.0188
          76    0.0056   -0.0145    0.0030    0.0029    0.0048    0.0010   -0.0104    0.0059
          77   -0.0087   -0.0025   -0.0023    0.0066    0.0151    0.0091    0.0068    0.0032
          78   -0.0005   -0.0018   -0.0035    0.0092    0.0065    0.0110   -0.0241    0.0109
          79   -0.0159   -0.0051    0.0002   -0.0019    0.0001    0.0006    0.0282   -0.0004
          80   -0.0138   -0.0167    0.0040   -0.0117   -0.0190   -0.0030    0.0433   -0.0236
          81   -0.0128   -0.0435    0.0128   -0.0234   -0.0417   -0.0220    0.0252   -0.0149
          82   -0.0096    0.0112   -0.0027    0.0027    0.0008    0.0155    0.0147   -0.0141
          83    0.0131    0.0296   -0.0023    0.0075   -0.0101    0.0435   -0.0286   -0.0168
          84   -0.0085    0.0787   -0.0115    0.0233    0.0135    0.0892   -0.0391   -0.0296
          85   -0.0012   -0.0113    0.0015    0.0012    0.0064   -0.0072    0.0085    0.0154
          86    0.0249   -0.0261    0.0054   -0.0077   -0.0054   -0.0411    0.0056    0.0181
          87    0.0096   -0.0141    0.0005   -0.0126    0.0046   -0.0784    0.0473    0.0201
          88    0.0132   -0.0270    0.0062   -0.0016   -0.0087    0.0029   -0.0175    0.0022
          89    0.0075   -0.0386    0.0084   -0.0117   -0.0302    0.0172   -0.0027   -0.0182
          90   -0.0217   -0.0596    0.0104   -0.0162   -0.0346    0.0502    0.0121   -0.0517
          91   -0.0068    0.0180    0.0001   -0.0064   -0.0144    0.0110    0.0045    0.0119
          92   -0.0040   -0.0167   -0.0022    0.0156    0.0333    0.0063   -0.0103    0.0029
          93   -0.0029    0.0051   -0.0012   -0.0008    0.0004   -0.0026    0.0043   -0.0036
          94    0.0048   -0.0136   -0.0086    0.0079    0.0196   -0.0107   -0.0083    0.0286
          95   -0.0287    0.0069    0.0048    0.0021    0.0206    0.0195    0.0291   -0.0039
          96    0.0042   -0.0016   -0.0001    0.0038    0.0042    0.0038   -0.0326   -0.0009
          97   -0.0083    0.0254   -0.0033   -0.0006    0.0035   -0.0076    0.0064   -0.0035
          98   -0.0081    0.0210   -0.0026    0.0052    0.0157   -0.0092   -0.0026   -0.0078
          99   -0.0037    0.0107    0.0015   -0.0105   -0.0247    0.0139    0.0082    0.0125
         100   -0.0090    0.0193   -0.0013   -0.0062   -0.0162    0.0152    0.0045    0.0129
         101   -0.0083   -0.0099   -0.0016    0.0081    0.0067    0.0364   -0.0165    0.0265
         102   -0.0017    0.0003   -0.0040    0.0078    0.0276   -0.0328    0.0129   -0.0312
         103   -0.0100    0.0207    0.0022   -0.0162   -0.0425    0.0423    0.0071    0.0383
         104   -0.0021   -0.0238   -0.0016    0.0187    0.0489   -0.0163    0.0034   -0.0177
         105   -0.0027    0.0009   -0.0004   -0.0013    0.0020   -0.0069    0.0143   -0.0077
         106   -0.0104    0.0306   -0.0052    0.0049    0.0178   -0.0161    0.0035   -0.0102
         107   -0.0033    0.0078    0.0002   -0.0031   -0.0052    0.0000    0.0037   -0.0003
         108   -0.0050    0.0100   -0.0029    0.0051    0.0158   -0.0123    0.0002   -0.0088
         109   -0.0055    0.0190   -0.0026   -0.0025   -0.0023   -0.0034    0.0068   -0.0008
         110   -0.0199    0.0769   -0.0019   -0.0164   -0.0229   -0.0214    0.0245   -0.0166
         111   -0.0087    0.0365    0.0016   -0.0203   -0.0418    0.0064    0.0210    0.0067
         112   -0.0162    0.0510   -0.0106    0.0167    0.0532   -0.0493    0.0016   -0.0381
         113    0.0078   -0.0541   -0.0004    0.0223    0.0398    0.0156   -0.0316    0.0130
         114   -0.0009   -0.0129   -0.0051    0.0219    0.0502   -0.0164   -0.0177   -0.0117
         115   -0.0066    0.0156   -0.0018   -0.0018   -0.0039    0.0086    0.0026    0.0103
         116   -0.0112    0.0563    0.0040   -0.0377   -0.0750   -0.0026    0.0460   -0.0022
         117   -0.0109    0.0360   -0.0062    0.0066    0.0286   -0.0414    0.0087   -0.0330
         118    0.0219    0.0034   -0.0232   -0.0004    0.0019    0.0005    0.0091   -0.0088
         119    0.0100   -0.0013   -0.0196   -0.0140    0.0065    0.0019    0.0016   -0.0054
         120   -0.0894   -0.0064    0.0013   -0.0574    0.0001   -0.0127   -0.0352    0.0317


   Root No.      25        26        27        28        29        30        31        32

                25 A      26 A      27 A      28 A      29 A      30 A      31 A      32 A   

                 458.5     469.8     512.9     526.4     553.3     559.8     583.9     609.3
  
           1    0.0199   -0.0030   -0.0036    0.0286   -0.0158   -0.0066    0.0138   -0.0033
           2    0.0238    0.0008    0.0162   -0.0365   -0.0088   -0.0143    0.0211   -0.0045
           3    0.0041   -0.0085   -0.0091    0.0092    0.0052   -0.0074   -0.0273    0.0056
           4    0.0179   -0.0043    0.0008    0.0222   -0.0167   -0.0020    0.0176   -0.0033
           5   -0.0172    0.0011   -0.0128    0.0306   -0.0030    0.0017   -0.0064    0.0024
           6   -0.0112    0.0214    0.0111    0.0078   -0.0068    0.0197    0.0196   -0.0070
           7   -0.0051   -0.0004   -0.0012   -0.0029    0.0162    0.0200   -0.0027   -0.0008
           8   -0.0031   -0.0006   -0.0155    0.0500   -0.0167   -0.0073    0.0011    0.0019
           9    0.0022    0.0156    0.0014   -0.0063    0.0003   -0.0045   -0.0020    0.0011
          10   -0.0111    0.0046   -0.0021   -0.0020    0.0179    0.0217   -0.0050   -0.0002
          11    0.0159   -0.0021    0.0000    0.0097    0.0046    0.0163    0.0088   -0.0029
          12    0.0053   -0.0261   -0.0032    0.0005    0.0041    0.0071    0.0006   -0.0011
          13   -0.0145   -0.0036    0.0046   -0.0406    0.0244    0.0073   -0.0217    0.0050
          14    0.0087    0.0015    0.0064   -0.0179    0.0106    0.0103    0.0004   -0.0009
          15   -0.0144    0.0314    0.0068   -0.0045   -0.0011   -0.0005    0.0004    0.0010
          16    0.0002    0.0019    0.0091   -0.0248   -0.0071   -0.0180   -0.0033    0.0034
          17   -0.0018    0.0025    0.0039   -0.0237    0.0245    0.0198   -0.0116    0.0014
          18    0.0166   -0.0281   -0.0078   -0.0060    0.0044   -0.0019   -0.0062    0.0006
          19    0.0025   -0.0010    0.0047   -0.0155   -0.0071   -0.0174   -0.0002    0.0005
          20   -0.0255   -0.0006   -0.0077    0.0030    0.0034   -0.0052   -0.0140    0.0033
          21   -0.0048    0.0019    0.0109    0.0045   -0.0092    0.0177    0.0243   -0.0028
          22   -0.0311    0.0007   -0.0090    0.0041    0.0240    0.0262   -0.0151    0.0017
          23   -0.0167   -0.0016   -0.0219    0.0494   -0.0096   -0.0095   -0.0149    0.0067
          24    0.0219    0.0049   -0.0111   -0.0152    0.0028   -0.0460   -0.0414    0.0178
          25   -0.0171    0.0140   -0.0114    0.0377    0.0013    0.0157    0.0016   -0.0005
          26    0.0183   -0.0076    0.0048   -0.0122    0.0132    0.0183    0.0039   -0.0021
          27    0.0291   -0.0991   -0.0204    0.0083    0.0104    0.0010   -0.0168    0.0041
          28   -0.0114   -0.0120    0.0032   -0.0377    0.0251    0.0120   -0.0183    0.0036
          29    0.0150    0.0019    0.0125   -0.0317   -0.0047   -0.0160   -0.0007    0.0023
          30   -0.0322    0.0872    0.0136   -0.0064   -0.0071   -0.0209   -0.0161    0.0090
          31   -0.0144    0.0008   -0.0027    0.0063   -0.0031   -0.0039    0.0004   -0.0002
          32   -0.0217   -0.0018   -0.0006   -0.0055   -0.0055   -0.0138   -0.0037    0.0006
          33    0.0013    0.0020   -0.0011    0.0007   -0.0020   -0.0038   -0.0001   -0.0001
          34   -0.0011   -0.0010   -0.0349   -0.0074   -0.0020    0.0007    0.0042   -0.0018
          35   -0.0213   -0.0170    0.0399   -0.0161   -0.0360    0.0299    0.0510   -0.0113
          36   -0.0035   -0.0069    0.0096    0.0070   -0.0088    0.0164    0.0735   -0.0337
          37   -0.0191    0.0013   -0.0045    0.0120   -0.0057   -0.0058    0.0018   -0.0009
          38    0.0164    0.0007    0.0014   -0.0056   -0.0024   -0.0118   -0.0012   -0.0005
          39   -0.0183    0.0003   -0.0021   -0.0026   -0.0078   -0.0226   -0.0033   -0.0001
          40   -0.0507   -0.0020   -0.0033    0.0074   -0.0130   -0.0201    0.0062   -0.0038
          41   -0.0186    0.0007   -0.0092    0.0031    0.0043   -0.0083   -0.0211    0.0051
          42    0.0319    0.0077   -0.0126    0.0122    0.0179    0.0146   -0.0289    0.0091
          43    0.0084    0.0031   -0.0065    0.0218    0.0101    0.0301   -0.0040    0.0037
          44   -0.0596   -0.0082    0.0128   -0.0075   -0.0253   -0.0113    0.0352   -0.0091
          45    0.0163    0.0041   -0.0045    0.0071    0.0068    0.0107   -0.0082    0.0034
          46    0.0184    0.0014   -0.0000    0.0033   -0.0004    0.0007    0.0018   -0.0007
          47    0.0022    0.0005   -0.0005    0.0037   -0.0002    0.0015    0.0012   -0.0006
          48    0.0017   -0.0001    0.0001    0.0006    0.0021    0.0046   -0.0006    0.0001
          49   -0.0202    0.0025   -0.0053    0.0147   -0.0078   -0.0087    0.0045   -0.0021
          50    0.0228    0.0024   -0.0020    0.0134    0.0071    0.0183    0.0018   -0.0002
          51   -0.0028    0.0014   -0.0048    0.0170    0.0064    0.0180   -0.0020    0.0016
          52    0.0682    0.0019    0.0057   -0.0039    0.0109    0.0223    0.0046   -0.0002
          53    0.0080   -0.0004    0.0052   -0.0323   -0.0200   -0.0627    0.0027   -0.0038
          54   -0.0256   -0.0015    0.0035   -0.0393   -0.0304   -0.0896   -0.0008   -0.0040
          55    0.0178    0.0014    0.0004   -0.0022   -0.0041   -0.0119    0.0018   -0.0018
          56   -0.0260    0.0011   -0.0088    0.0500    0.0192    0.0773    0.0022    0.0057
          57    0.0555    0.0012    0.0010    0.0394    0.0438    0.1286    0.0038    0.0089
          58   -0.0086   -0.0159   -0.0237   -0.0135   -0.0094    0.0055    0.0061   -0.0027
          59   -0.0056   -0.0044    0.0286   -0.0054   -0.0172    0.0107    0.0034    0.0007
          60    0.0091    0.0060   -0.0026    0.0126    0.0136   -0.0117   -0.0242   -0.0011
          61   -0.0081   -0.0092   -0.0268   -0.0155   -0.0036    0.0030    0.0138    0.0061
          62    0.0063    0.0107   -0.0233   -0.0019    0.0042   -0.0018    0.0045    0.0221
          63    0.0001    0.0119   -0.0051   -0.0086    0.0151   -0.0072    0.0330    0.0137
          64    0.0007    0.0011    0.0017    0.0107    0.0232   -0.0100    0.0120   -0.0189
          65   -0.0015   -0.0069   -0.0306   -0.0095   -0.0188    0.0115   -0.0078    0.0158
          66   -0.0026   -0.0020    0.0183    0.0017   -0.0041    0.0030   -0.0005   -0.0112
          67    0.0033    0.0043    0.0009    0.0140    0.0275   -0.0131    0.0076   -0.0151
          68   -0.0068   -0.0105   -0.0101   -0.0009    0.0153   -0.0057    0.0202   -0.0127
          69    0.0032    0.0021    0.0079   -0.0002   -0.0053    0.0004   -0.0051    0.0151
          70    0.0084    0.0140    0.0342    0.0201    0.0138   -0.0085   -0.0154    0.0050
          71   -0.0031    0.0007    0.0055    0.0033    0.0097   -0.0037    0.0043   -0.0085
          72    0.0013    0.0067   -0.0179   -0.0092   -0.0099    0.0063    0.0004    0.0003
          73    0.0006   -0.0004    0.0265   -0.0023   -0.0251    0.0125   -0.0139    0.0263
          74   -0.0014   -0.0048    0.0239    0.0183    0.0271   -0.0142    0.0049   -0.0143
          75   -0.0046   -0.0186    0.0110    0.0001   -0.0082    0.0029    0.0022    0.0073
          76    0.0002    0.0016    0.0109   -0.0054   -0.0181    0.0085   -0.0086    0.0171
          77    0.0106    0.0155   -0.0070    0.0050    0.0022   -0.0034   -0.0120    0.0177
          78   -0.0045    0.0010   -0.0170   -0.0138    0.0077    0.0004    0.0346   -0.0041
          79    0.0091    0.0084    0.0096    0.0227    0.0200   -0.0097   -0.0136   -0.0138
          80    0.0004   -0.0130   -0.0105    0.0018   -0.0348    0.0191   -0.0419    0.0025
          81   -0.0137   -0.0314    0.0454    0.0043   -0.0406    0.0225   -0.0373   -0.0497
          82    0.0031   -0.0018   -0.0257    0.0050    0.0145   -0.0058    0.0067   -0.0057
          83   -0.0071   -0.0176    0.0198    0.0107    0.0205   -0.0108    0.0110   -0.0166
          84    0.0016   -0.0165    0.0288    0.0096   -0.0067   -0.0019   -0.0168    0.0136
          85    0.0082    0.0142    0.0307    0.0199    0.0147   -0.0083   -0.0152    0.0003
          86   -0.0037    0.0028    0.0152   -0.0073   -0.0290    0.0170   -0.0189    0.0085
          87    0.0024    0.0147   -0.0301   -0.0078   -0.0148    0.0124   -0.0151   -0.0291
          88   -0.0077   -0.0131    0.0277   -0.0078   -0.0279    0.0153   -0.0031    0.0194
          89   -0.0092   -0.0268    0.0458    0.0223    0.0188   -0.0101    0.0031   -0.0173
          90   -0.0094   -0.0526    0.0674    0.0240   -0.0182    0.0049   -0.0204    0.0063
          91    0.0099    0.0175   -0.0106   -0.0033   -0.0060    0.0023   -0.0065    0.0007
          92    0.0059    0.0102   -0.0050   -0.0032   -0.0075    0.0013   -0.0113    0.0113
          93   -0.0005   -0.0032    0.0012    0.0014    0.0004   -0.0007   -0.0029   -0.0046
          94    0.0042    0.0005    0.0167   -0.0019   -0.0224    0.0130    0.0297    0.0139
          95    0.0171    0.0078    0.0124   -0.0113   -0.0270    0.0130    0.0089    0.0022
          96   -0.0012    0.0062   -0.0299   -0.0052    0.0206   -0.0146    0.0088   -0.0072
          97   -0.0008   -0.0014   -0.0041    0.0005    0.0013   -0.0007   -0.0008   -0.0006
          98   -0.0045   -0.0081    0.0035   -0.0025   -0.0083    0.0037   -0.0125   -0.0386
          99    0.0108    0.0172   -0.0100   -0.0033   -0.0096    0.0041   -0.0139   -0.0184
         100    0.0109    0.0201   -0.0195   -0.0022    0.0068   -0.0036    0.0084    0.0125
         101    0.0210    0.0405   -0.0419   -0.0148    0.0002   -0.0022    0.0061   -0.0125
         102   -0.0183   -0.0376    0.0349    0.0188    0.0129   -0.0060    0.0014    0.0463
         103    0.0316    0.0561   -0.0442   -0.0140   -0.0138    0.0047   -0.0139   -0.0242
         104   -0.0054   -0.0133    0.0312    0.0120   -0.0100    0.0029   -0.0225    0.0521
         105   -0.0007   -0.0050    0.0140    0.0080   -0.0050    0.0020   -0.0146    0.0158
         106   -0.0057   -0.0094   -0.0007    0.0003    0.0006   -0.0003   -0.0023   -0.0111
         107    0.0009    0.0010   -0.0008    0.0011    0.0015   -0.0008    0.0003    0.0022
         108   -0.0058   -0.0090    0.0033    0.0016    0.0024   -0.0011    0.0012    0.0009
         109    0.0015    0.0012   -0.0066   -0.0013   -0.0020    0.0006   -0.0060   -0.0179
         110   -0.0085   -0.0186    0.0109    0.0109    0.0118   -0.0045    0.0077    0.0039
         111    0.0077    0.0097   -0.0055    0.0031    0.0002    0.0002   -0.0042   -0.0027
         112   -0.0265   -0.0440    0.0184    0.0095    0.0182   -0.0075    0.0202    0.0167
         113    0.0064    0.0153   -0.0149   -0.0231   -0.0391    0.0174   -0.0417   -0.1370
[...]
 REDUCED MASS        0.2841         C 31 -- H 34          +5.5% ( 23.2%)      4.1%
 EFFECTIVE MASS      2.5019
 FORCE CONSTANT      0.3094

 VIBRATION         80   80A           ATOM PAIR      ENERGY CONTRIBUTION    RADIAL
 FREQUENCY          1366.05         C 11 -- H 14         +11.3% ( 38.3%)      2.6%
 TRANSITION DIPOLE   0.6874         C 31 -- H 35          +9.2% ( 34.4%)      3.1%
 TRAVEL (Ang.)       0.4413         C  2 -- C  7          +7.8% ( 31.8%)     95.7%
 REDUCED MASS        0.2535         C 31 -- H 34          +7.5% ( 31.1%)      2.9%
 EFFECTIVE MASS      4.0916
 FORCE CONSTANT      0.2787

 VIBRATION         81   81A           ATOM PAIR      ENERGY CONTRIBUTION    RADIAL
 FREQUENCY          1383.40         C  2 -- C  7         +10.9% ( 42.9%)     74.9%
 TRANSITION DIPOLE   1.7351         C 26 -- H 32          +7.8% ( 36.2%)      4.4%
 TRAVEL (Ang.)       0.3396         C  7 -- C 11          +7.2% ( 34.9%)     89.3%
 REDUCED MASS        0.4227         C  6 -- C  7          +5.8% ( 31.1%)      0.3%
 EFFECTIVE MASS      6.0696
 FORCE CONSTANT      0.4766

 VIBRATION         82   82A           ATOM PAIR      ENERGY CONTRIBUTION    RADIAL
 FREQUENCY          1390.45         C 23 -- C 24         +13.9% ( 47.0%)     97.1%
 TRANSITION DIPOLE   1.1623         C 25 -- H 30         +11.2% ( 42.3%)      1.3%
 TRAVEL (Ang.)       0.2642         C 24 -- H 29         +10.8% ( 41.4%)      4.5%
 REDUCED MASS        0.6949         C 21 -- C 26          +9.3% ( 38.6%)     43.5%
 EFFECTIVE MASS      6.3631
 FORCE CONSTANT      0.7916

 VIBRATION         83   83A           ATOM PAIR      ENERGY CONTRIBUTION    RADIAL
 FREQUENCY          1402.53         C 36 -- H 38         +25.5% ( 51.5%)      1.4%
 TRANSITION DIPOLE   0.1949         C 36 -- H 39         +25.0% ( 51.0%)      1.0%
 TRAVEL (Ang.)       0.4162         C 31 -- C 33          +5.5% ( 23.9%)     84.3%
 REDUCED MASS        0.2775         C 33 -- H 37          +3.7% ( 19.5%)      0.4%
 EFFECTIVE MASS      2.8759
 FORCE CONSTANT      0.3217

 VIBRATION         84   84A           ATOM PAIR      ENERGY CONTRIBUTION    RADIAL
 FREQUENCY          1405.42         C 16 -- H 19         +17.3% ( 44.1%)      0.9%
 TRANSITION DIPOLE   0.3761         C 16 -- H 18         +17.0% ( 43.7%)      1.4%
 TRAVEL (Ang.)       0.4919         C 36 -- H 38          +6.1% ( 26.3%)      1.4%
 REDUCED MASS        0.1983         C 36 -- H 39          +6.0% ( 25.9%)      1.0%
 EFFECTIVE MASS      3.3925
 FORCE CONSTANT      0.2307

 VIBRATION         85   85A           ATOM PAIR      ENERGY CONTRIBUTION    RADIAL
 FREQUENCY          1413.02         C  3 -- C  4          +7.6% ( 34.0%)      7.9%
 TRANSITION DIPOLE   0.6263         C 16 -- H 19          +7.5% ( 33.8%)      1.1%
 TRAVEL (Ang.)       0.3564         C 16 -- H 18          +7.3% ( 33.3%)      1.7%
 REDUCED MASS        0.3756         C  4 -- C  5          +6.9% ( 32.3%)     84.7%
 EFFECTIVE MASS      6.1051
 FORCE CONSTANT      0.4419

 VIBRATION         86   86A           ATOM PAIR      ENERGY CONTRIBUTION    RADIAL
 FREQUENCY          1436.11         C 21 -- C 22         +19.4% ( 63.6%)     98.1%
 TRANSITION DIPOLE   3.1148         C 21 -- C 26         +13.8% ( 53.7%)     94.2%
 TRAVEL (Ang.)       0.1706         C 22 -- C 23          +9.6% ( 44.8%)     12.1%
 REDUCED MASS        1.6125         O 20 -- C 21          +7.8% ( 40.3%)      0.0%
 EFFECTIVE MASS      9.9436
 FORCE CONSTANT      1.9594

 VIBRATION         87   87A           ATOM PAIR      ENERGY CONTRIBUTION    RADIAL
 FREQUENCY          1475.01         C  6 -- C  7         +21.0% ( 65.5%)     95.9%
 TRANSITION DIPOLE   1.8744         C  5 -- C  6         +10.6% ( 46.4%)      2.6%
 TRAVEL (Ang.)       0.1705         C  2 -- C  7          +9.7% ( 44.5%)      1.3%
 REDUCED MASS        1.5726         C  6 -- H 40          +9.5% ( 43.9%)      5.0%
 EFFECTIVE MASS      9.9723
 FORCE CONSTANT      2.0158

 VIBRATION         88   88A           ATOM PAIR      ENERGY CONTRIBUTION    RADIAL
 FREQUENCY          1542.17         O  1 -- C  2         +16.4% ( 57.0%)     98.6%
 TRANSITION DIPOLE   7.4217         O 20 -- C 21         +15.4% ( 55.2%)     99.6%
 TRAVEL (Ang.)       0.1540         C  2 -- C  3         +10.9% ( 46.5%)     62.1%
 REDUCED MASS        1.8430         C 21 -- C 26          +9.6% ( 43.6%)     55.7%
 EFFECTIVE MASS     11.2064
 FORCE CONSTANT      2.5825

 VIBRATION         89   89A           ATOM PAIR      ENERGY CONTRIBUTION    RADIAL
 FREQUENCY          1577.73         C  5 -- C  6         +15.2% ( 55.6%)     87.4%
 TRANSITION DIPOLE   4.3292         C  4 -- C  5         +14.3% ( 53.9%)     98.5%
 TRAVEL (Ang.)       0.1592         C  3 -- C  4          +9.5% ( 44.1%)     68.6%
 REDUCED MASS        1.6857         C  2 -- C  7          +7.7% ( 39.7%)     95.3%
 EFFECTIVE MASS     11.9001
 FORCE CONSTANT      2.4723

 VIBRATION         90   90A           ATOM PAIR      ENERGY CONTRIBUTION    RADIAL
 FREQUENCY          1620.61         C 22 -- C 23         +22.9% ( 70.8%)     95.9%
 TRANSITION DIPOLE   4.0936         C 23 -- C 24         +15.1% ( 57.5%)     98.0%
 TRAVEL (Ang.)       0.1375         C 24 -- C 25         +14.9% ( 57.1%)     97.1%
 REDUCED MASS        2.1994         C 23 -- H 28          +8.4% ( 42.8%)      3.6%
 EFFECTIVE MASS     11.9506
 FORCE CONSTANT      3.4034

 VIBRATION         91   91A           ATOM PAIR      ENERGY CONTRIBUTION    RADIAL
 FREQUENCY          1670.62         C  3 -- C  4         +22.2% ( 65.1%)    100.0%
 TRANSITION DIPOLE   5.4756         C  4 -- C  5         +10.1% ( 43.8%)     12.3%
 TRAVEL (Ang.)       0.1628         C  4 -- H  9          +7.7% ( 38.3%)      8.3%
 REDUCED MASS        1.5235         C  5 -- C  6          +6.8% ( 35.9%)     92.6%
 EFFECTIVE MASS     10.4026
 FORCE CONSTANT      2.5052

 VIBRATION         92   92A           ATOM PAIR      ENERGY CONTRIBUTION    RADIAL
 FREQUENCY          1701.46         C 24 -- C 25         +17.5% ( 58.9%)     99.6%
 TRANSITION DIPOLE   4.0610         C 22 -- C 23         +10.5% ( 45.5%)     99.5%
 TRAVEL (Ang.)       0.1711         C 23 -- C 24          +9.0% ( 42.2%)      0.4%
 REDUCED MASS        1.3535         C  3 -- C  4          +6.5% ( 35.9%)     98.8%
 EFFECTIVE MASS     11.1548
 FORCE CONSTANT      2.3086

 VIBRATION         93   93A           ATOM PAIR      ENERGY CONTRIBUTION    RADIAL
 FREQUENCY          1748.19         H 12 -- O 20         +19.5% ( 51.7%)     93.8%
 TRANSITION DIPOLE   2.3695         O  1 -- C  2         +11.0% ( 38.8%)     96.3%
 TRAVEL (Ang.)       0.2112         C 21 -- C 22          +9.9% ( 36.8%)     27.4%
 REDUCED MASS        0.8648         O 20 -- C 21          +8.3% ( 33.8%)     93.2%
 EFFECTIVE MASS      6.8841
 FORCE CONSTANT      1.5572

 VIBRATION         94   94A           ATOM PAIR      ENERGY CONTRIBUTION    RADIAL
 FREQUENCY          1784.91         C 13 -- C 16         +42.9% ( 95.7%)     99.5%
 TRANSITION DIPOLE   1.3504         C 11 -- C 13         +14.9% ( 56.4%)     48.0%
 TRAVEL (Ang.)       0.0885         C 13 -- H 17         +14.0% ( 54.6%)      8.3%
 REDUCED MASS        4.8281         C 16 -- H 18         +10.8% ( 48.0%)     15.8%
 EFFECTIVE MASS     11.6612         C 16 -- H 19         +10.7% ( 47.8%)     17.1%
 FORCE CONSTANT      9.0627

 VIBRATION         95   95A           ATOM PAIR      ENERGY CONTRIBUTION    RADIAL
 FREQUENCY          1787.94         C 33 -- C 36         +44.0% ( 97.2%)     99.6%
 TRANSITION DIPOLE   1.2297         C 31 -- C 33         +15.2% ( 57.1%)     45.8%
 TRAVEL (Ang.)       0.0858         C 33 -- H 37         +14.3% ( 55.4%)      8.9%
 REDUCED MASS        5.1198         C 36 -- H 38         +11.0% ( 48.5%)     15.5%
 EFFECTIVE MASS     11.7948         C 36 -- H 39         +10.9% ( 48.3%)     17.0%
 FORCE CONSTANT      9.6429

 VIBRATION         96   96A           ATOM PAIR      ENERGY CONTRIBUTION    RADIAL
 FREQUENCY          1816.16         O  1 -- H 32         +24.9% ( 60.2%)     44.4%
 TRANSITION DIPOLE   4.6768         C 26 -- H 32         +22.6% ( 57.3%)     97.8%
 TRAVEL (Ang.)       0.2729         C 24 -- C 25          +7.4% ( 32.7%)     97.5%
 REDUCED MASS        0.4985         O  1 -- C  2          +6.5% ( 30.8%)     99.9%
 EFFECTIVE MASS      5.1954
 FORCE CONSTANT      0.9688

 VIBRATION         97   97A           ATOM PAIR      ENERGY CONTRIBUTION    RADIAL
 FREQUENCY          2617.11         C 31 -- H 35         +56.6% ( 78.6%)     98.4%
 TRANSITION DIPOLE   0.8089         C 31 -- H 34         +40.8% ( 66.7%)     97.3%
 TRAVEL (Ang.)       0.2253         C 31 -- C 33          +0.9% ( 10.1%)      0.9%
 REDUCED MASS        0.5077         C 26 -- C 31          +0.9% ( 10.1%)      0.0%
 EFFECTIVE MASS      1.4574
 FORCE CONSTANT      2.0490

 VIBRATION         98   98A           ATOM PAIR      ENERGY CONTRIBUTION    RADIAL
 FREQUENCY          2631.34         C 11 -- H 15         +52.4% ( 75.4%)     98.4%
 TRANSITION DIPOLE   0.4985         C 11 -- H 14         +44.7% ( 69.7%)     97.8%
 TRAVEL (Ang.)       0.2283         C 13 -- H 17          +1.1% ( 11.1%)     99.3%
 REDUCED MASS        0.4918         C 11 -- C 13          +0.9% (  9.9%)      0.7%
 EFFECTIVE MASS      1.4468
 FORCE CONSTANT      2.0062

 VIBRATION         99   99A           ATOM PAIR      ENERGY CONTRIBUTION    RADIAL
 FREQUENCY          2690.00         C 36 -- H 38         +53.4% ( 76.0%)     98.9%
 TRANSITION DIPOLE   0.6450         C 36 -- H 39         +40.4% ( 66.1%)     97.9%
 TRAVEL (Ang.)       0.2312         C 33 -- H 37          +5.0% ( 23.2%)     99.7%
 REDUCED MASS        0.4691         C 33 -- C 36          +1.1% ( 10.8%)      2.9%
 EFFECTIVE MASS      1.4944
 FORCE CONSTANT      1.9998

 VIBRATION        100  100A           ATOM PAIR      ENERGY CONTRIBUTION    RADIAL
 FREQUENCY          2701.15         C 13 -- H 17         +39.7% ( 65.1%)     99.9%
 TRANSITION DIPOLE   0.3280         C 16 -- H 18         +29.8% ( 56.3%)     98.6%
 TRAVEL (Ang.)       0.2745         C 16 -- H 19         +28.3% ( 54.9%)     98.5%
 REDUCED MASS        0.3313         C 13 -- C 16          +1.1% ( 11.0%)      9.7%
 EFFECTIVE MASS      1.4409
 FORCE CONSTANT      1.4242

 VIBRATION        101  101A           ATOM PAIR      ENERGY CONTRIBUTION    RADIAL
 FREQUENCY          2724.99         C 25 -- H 30         +78.2% ( 89.6%)    100.0%
 TRANSITION DIPOLE   0.4729         C 24 -- H 29          +5.4% ( 23.5%)    100.0%
 TRAVEL (Ang.)       0.2021         C 13 -- H 17          +5.1% ( 22.9%)    100.0%
 REDUCED MASS        0.6059         C 23 -- H 28          +3.2% ( 18.0%)    100.0%
 EFFECTIVE MASS      1.4050
 FORCE CONSTANT      2.6506

 VIBRATION        102  102A           ATOM PAIR      ENERGY CONTRIBUTION    RADIAL
 FREQUENCY          2726.71         C 13 -- H 17         +47.5% ( 70.1%)    100.0%
 TRANSITION DIPOLE   0.9101         C 16 -- H 18         +19.2% ( 44.5%)     98.5%
 TRAVEL (Ang.)       0.2820         C 16 -- H 19         +19.0% ( 44.4%)     98.4%
 REDUCED MASS        0.3110         C 25 -- H 30          +9.6% ( 31.6%)    100.0%
 EFFECTIVE MASS      1.4627
 FORCE CONSTANT      1.3623

 VIBRATION        103  103A           ATOM PAIR      ENERGY CONTRIBUTION    RADIAL
 FREQUENCY          2728.58         C 23 -- H 28         +84.0% ( 92.7%)    100.0%
 TRANSITION DIPOLE   0.5795         C 22 -- H 27          +6.8% ( 26.4%)     99.9%
 TRAVEL (Ang.)       0.1889         C 25 -- H 30          +4.5% ( 21.5%)    100.0%
 REDUCED MASS        0.6922         C 24 -- H 29          +1.6% ( 12.9%)     98.9%
 EFFECTIVE MASS      1.3834
 FORCE CONSTANT      3.0366

 VIBRATION        104  104A           ATOM PAIR      ENERGY CONTRIBUTION    RADIAL
 FREQUENCY          2742.39         C  6 -- H 40         +88.7% ( 95.2%)    100.0%
 TRANSITION DIPOLE   0.4603         C  5 -- H 10          +4.6% ( 21.7%)     99.8%
 TRAVEL (Ang.)       0.1791         C  4 -- H  9          +2.8% ( 17.0%)    100.0%
 REDUCED MASS        0.7670         C  6 -- C  7          +1.0% (  9.9%)     14.8%
 EFFECTIVE MASS      1.3861
 FORCE CONSTANT      3.3985

 VIBRATION        105  105A           ATOM PAIR      ENERGY CONTRIBUTION    RADIAL
 FREQUENCY          2745.36         C 33 -- H 37         +82.3% ( 91.3%)     99.9%
 TRANSITION DIPOLE   0.5525         C 31 -- H 34          +8.5% ( 29.4%)     99.8%
 TRAVEL (Ang.)       0.1929         C 36 -- H 38          +2.8% ( 16.9%)     99.2%
 REDUCED MASS        0.6599         C 31 -- H 35          +2.3% ( 15.3%)     92.3%
 EFFECTIVE MASS      1.3882
 FORCE CONSTANT      2.9306

 VIBRATION        106  106A           ATOM PAIR      ENERGY CONTRIBUTION    RADIAL
 FREQUENCY          2746.42         C  4 -- H  9         +86.6% ( 94.1%)    100.0%
 TRANSITION DIPOLE   0.4808         C  3 -- H  8          +5.1% ( 22.9%)     99.8%
 TRAVEL (Ang.)       0.1829         C  6 -- H 40          +4.5% ( 21.5%)    100.0%
 REDUCED MASS        0.7338         C  5 -- H 10          +1.6% ( 12.8%)     98.5%
 EFFECTIVE MASS      1.3778
 FORCE CONSTANT      3.2613

 VIBRATION        107  107A           ATOM PAIR      ENERGY CONTRIBUTION    RADIAL
 FREQUENCY          2750.82         C 22 -- H 27         +76.2% ( 88.2%)    100.0%
 TRANSITION DIPOLE   1.1874         C 24 -- H 29         +17.5% ( 42.3%)    100.0%
 TRAVEL (Ang.)       0.2029         C 23 -- H 28          +3.3% ( 18.3%)     99.2%
 REDUCED MASS        0.5957         C 22 -- C 23          +0.9% (  9.6%)     50.8%
 EFFECTIVE MASS      1.3898
 FORCE CONSTANT      2.6558

 VIBRATION        108  108A           ATOM PAIR      ENERGY CONTRIBUTION    RADIAL
 FREQUENCY          2756.69         C 31 -- H 34         +44.4% ( 65.1%)     98.2%
 TRANSITION DIPOLE   0.7825         C 31 -- H 35         +33.8% ( 56.8%)     97.3%
 TRAVEL (Ang.)       0.2735         C 33 -- H 37         +10.1% ( 31.1%)     99.7%
 REDUCED MASS        0.3269         C 24 -- H 29          +7.3% ( 26.4%)    100.0%
 EFFECTIVE MASS      1.2559
 FORCE CONSTANT      1.4636

 VIBRATION        109  109A           ATOM PAIR      ENERGY CONTRIBUTION    RADIAL
 FREQUENCY          2759.33         C 11 -- H 14         +52.7% ( 70.6%)     98.5%
 TRANSITION DIPOLE   0.5865         C 11 -- H 15         +41.4% ( 62.6%)     97.1%
 TRAVEL (Ang.)       0.2350         C 13 -- H 17          +1.6% ( 12.2%)     96.7%
 REDUCED MASS        0.4424         C  6 -- H 40          +0.7% (  8.2%)    100.0%
 EFFECTIVE MASS      1.2162
 FORCE CONSTANT      1.9847

 VIBRATION        110  110A           ATOM PAIR      ENERGY CONTRIBUTION    RADIAL
 FREQUENCY          2761.63         C 24 -- H 29         +66.0% ( 81.7%)    100.0%
 TRANSITION DIPOLE   0.9969         C 22 -- H 27         +12.7% ( 35.9%)    100.0%
 TRAVEL (Ang.)       0.2345         C 23 -- H 28          +6.7% ( 26.0%)     99.8%
 REDUCED MASS        0.4442         C 25 -- H 30          +4.6% ( 21.7%)     99.9%
 EFFECTIVE MASS      1.4276
 FORCE CONSTANT      1.9959

 VIBRATION        111  111A           ATOM PAIR      ENERGY CONTRIBUTION    RADIAL
 FREQUENCY          2769.84         C  3 -- H  8         +79.1% ( 89.8%)    100.0%
 TRANSITION DIPOLE   1.0184         C  5 -- H 10         +16.3% ( 40.7%)    100.0%
 TRAVEL (Ang.)       0.1961         C  4 -- H  9          +2.3% ( 15.4%)     98.7%
 REDUCED MASS        0.6334         C  3 -- C  4          +0.9% (  9.5%)     44.3%
 EFFECTIVE MASS      1.3860
 FORCE CONSTANT      2.8629

 VIBRATION        112  112A           ATOM PAIR      ENERGY CONTRIBUTION    RADIAL
 FREQUENCY          2778.08         C  5 -- H 10         +75.0% ( 87.4%)    100.0%
 TRANSITION DIPOLE   0.9157         C  3 -- H  8         +12.5% ( 35.7%)    100.0%
 TRAVEL (Ang.)       0.2067         C  4 -- H  9          +5.9% ( 24.5%)     99.8%
 REDUCED MASS        0.5679         C  6 -- H 40          +3.6% ( 19.1%)     99.6%
 EFFECTIVE MASS      1.4356
 FORCE CONSTANT      2.5822

 VIBRATION        113  113A           ATOM PAIR      ENERGY CONTRIBUTION    RADIAL
 FREQUENCY          2811.59         C 36 -- H 39         +56.8% ( 73.6%)     97.3%
 TRANSITION DIPOLE   0.7237         C 36 -- H 38         +41.7% ( 63.1%)     95.4%
 TRAVEL (Ang.)       0.2217         C 33 -- C 36          +1.0% (  9.8%)     98.9%
 REDUCED MASS        0.4880         C 31 -- H 35          +0.2% (  4.5%)     97.7%
 EFFECTIVE MASS      1.2731
 FORCE CONSTANT      2.2727

 VIBRATION        114  114A           ATOM PAIR      ENERGY CONTRIBUTION    RADIAL
 FREQUENCY          2828.41         C 16 -- H 19         +50.2% ( 69.2%)     96.8%
 TRANSITION DIPOLE   0.7885         C 16 -- H 18         +48.7% ( 68.1%)     96.7%
 TRAVEL (Ang.)       0.2224         C 13 -- C 16          +0.9% (  9.4%)     99.9%
 REDUCED MASS        0.4820
 EFFECTIVE MASS      1.2580
 FORCE CONSTANT      2.2721

           FORCE CONSTANT IN CARTESIAN COORDINATES (Millidynes/A)

    ATOM   CHEMICAL       X               Y               Z
   NUMBER   SYMBOL  FORCE CONSTANT  FORCE CONSTANT  FORCE CONSTANT

      1       O        9.200564        1.406922        0.941450
      2       C       12.218446        8.814373        2.948000
      3       C       11.795750        8.285162        2.216779
      4       C       11.436656        8.970716        2.476823
      5       C        9.308544       10.655305        2.242980
      6       C        9.565574       10.599024        2.432099
      7       C        9.766732        9.398832        2.348027
      8       H        1.872115        3.148148        0.446611
      9       H        1.637367        3.436973        0.385703
     10       H        4.200510        0.874772        0.427066
     11       C        7.843534        7.043581        6.088809
     12       H        0.917266        1.004054        0.262350
     13       C        9.550982        8.724981        5.650093
     14       H        1.317247        2.577422        1.740149
     15       H        1.139711        0.740225        3.617436
     16       C        8.458287        8.318891        5.279716
     17       H        1.507530        2.244717        1.658176
     18       H        1.355570        2.392081        1.670568
     19       H        4.253269        0.633900        0.513379
     20       O        7.942645        2.533119        2.230404
     21       C       10.866289        8.142236        4.728767
     22       C       12.077329        6.877047        3.750614
     23       C       11.935722        7.230047        3.812072
     24       C        9.120978        9.719259        4.049170
     25       C        8.768630        9.927653        4.214010
     26       C        8.745526        7.720768        3.988399
     27       H        1.973177        2.638527        0.782675
     28       H        1.550404        2.634936        1.200038
     29       H        4.168684        0.774800        0.506423
     30       H        1.829876        2.809727        0.745153
     31       C        7.140180        6.236381        6.842185
     32       H        0.726222        0.639292        1.315876
     33       C       13.282553        3.869888        6.767918
     34       H        2.496855        1.690412        1.385353
     35       H        1.062283        1.677541        2.831778
     36       C       12.560402        3.424312        6.153929
     37       H        1.092450        1.063567        3.290866
     38       H        1.069700        1.052173        3.233623
     39       H        2.713405        0.470892        2.183481
     40       H        1.864716        3.234483        0.392152

 **********************
 *                    *
 * JOB ENDED NORMALLY *
 *                    *
 **********************



 TOTAL JOB TIME:            11.45 SECONDS

 == MOPAC DONE ==
