 *******************************************************************************
 ** Cite this program as: MOPAC2016, Version: 22.066W, James J. P. Stewart,   **
 **                           web-site: HTTP://OpenMOPAC.net.                 **
 *******************************************************************************
 **                                                                           **
 **                                MOPAC2016                                  **
 **                                                                           **
 *******************************************************************************

                              PM6-D3H4 CALCULATION RESULTS

 *******************************************************************************
 *  CALCULATION DONE:                                Mon May  9 23:02:11 2022  *
 *  PM6-D3H4   - CORRECT DISPERSION AND HYDROGEN BOND TERMS USING THE D3H4 METHOD
 *  GEO_DAT    - DATA SET GEOMETRY IS IN FILE "E2_TS.arc"
 *
 *
 *
 *                 CHARGE ON SYSTEM = 0
 *
 *
 *
 *  IRC=N      - INTRINSIC REACTION COORDINATE -1 DEFINED
 *  LET        - OVERRIDE SOME SAFETY CHECKS
 *  T=         - A TIME OF 172800.0 SECONDS REQUESTED
 *  DUMP=N     - RESTART FILE WRITTEN EVERY 7200.0 SECONDS REQUESTED
 *  CYCLES=    - DO A MAXIMUM OF 10000 STEPS
 *  LARGE      - EXPANDED OUTPUT TO BE PRINTED
 *******************************************************************************
PM6-D3H4 CHARGE=0 IRC=-1 LARGE=100 LET CYCLES=10000 GEO_DAT="E2_TS.arc"
 (irc)

   ATOM   CHEMICAL          X               Y               Z
  NUMBER   SYMBOL      (ANGSTROMS)     (ANGSTROMS)     (ANGSTROMS)
 
     1       O         -0.22268997  *  -0.36750684  *  -0.11214961  *
     2       C          1.03631929  *  -0.21155242  *  -0.00921846  *
     3       C          1.54613858  *   1.05626916  *   0.46946447  *
     4       C          2.87464384  *   1.21660979  *   0.75166226  *
     5       C          3.79057530  *   0.14092710  *   0.58507029  *
     6       C          3.34835686  *  -1.04904311  *   0.05200477  *
     7       C          1.97392496  *  -1.28450288  *  -0.23500829  *
     8       H          0.82880723  *   1.86634995  *   0.56171275  *
     9       H          3.25512899  *   2.17509897  *   1.10818301  *
    10       H          4.83361755  *   0.28748902  *   0.84167665  *
    11       C          1.66025851  *  -2.42525519  *  -1.18199243  *
    12       H          1.63362557  *  -2.09768617  *   1.20551564  *
    13       C          0.19605515  *  -2.69481316  *  -1.38510306  *
    14       H          2.17888160  *  -3.35096243  *  -0.82814271  *
    15       H          2.08445353  *  -2.14878270  *  -2.18638127  *
    16       C         -0.38402085  *  -3.87138372  *  -1.14799149  *
    17       H         -0.37524922  *  -1.83189667  *  -1.75403502  *
    18       H          0.16071706  *  -4.73681248  *  -0.78182703  *
    19       H         -1.44320013  *  -4.03466747  *  -1.32781044  *
    20       O          1.28115382  *  -3.09767164  *   1.66901994  *
    21       C          0.01757838  *  -3.19222656  *   1.91481326  *
    22       C         -0.47144660  *  -4.52522905  *   2.17107908  *
    23       C         -1.81186381  *  -4.74772521  *   2.24707495  *
    24       C         -2.75830010  *  -3.66737440  *   2.11408486  *
    25       C         -2.32904829  *  -2.38789982  *   1.98541154  *
    26       C         -0.89807765  *  -2.03472888  *   1.90506943  *
    27       H          0.26818474  *  -5.32247475  *   2.26062283  *
    28       H         -2.20446468  *  -5.75658145  *   2.41068808  *
    29       H         -3.82028106  *  -3.91218483  *   2.13411182  *
    30       H         -3.03174512  *  -1.55092858  *   1.91749588  *
    31       C         -0.50313006  *  -0.88557513  *   2.86277589  *
    32       H         -0.76671301  *  -1.50333551  *   0.76180491  *
    33       C          0.61064070  *  -1.25654585  *   3.80004956  *
    34       H         -1.39318025  *  -0.60270175  *   3.47980466  *
    35       H         -0.21930667  *   0.01253350  *   2.24843380  *
    36       C          1.80539379  *  -0.66837062  *   3.78912286  *
    37       H          0.36351499  *  -2.04546755  *   4.51358231  *
    38       H          2.07319574  *   0.11579175  *   3.07680624  *
    39       H          2.59235510  *  -0.94071528  *   4.49084902  *
    40       H          4.06242021  *  -1.84975927  *  -0.15247077  *
 


          CARTESIAN COORDINATES 

    NO.       ATOM           X           Y           Z

     1         O         -0.2227     -0.3675     -0.1121
     2         C          1.0363     -0.2116     -0.0092
     3         C          1.5461      1.0563      0.4695
     4         C          2.8746      1.2166      0.7517
     5         C          3.7906      0.1409      0.5851
     6         C          3.3484     -1.0490      0.0520
     7         C          1.9739     -1.2845     -0.2350
     8         H          0.8288      1.8663      0.5617
     9         H          3.2551      2.1751      1.1082
    10         H          4.8336      0.2875      0.8417
    11         C          1.6603     -2.4253     -1.1820
    12         H          1.6336     -2.0977      1.2055
    13         C          0.1961     -2.6948     -1.3851
    14         H          2.1789     -3.3510     -0.8281
    15         H          2.0845     -2.1488     -2.1864
    16         C         -0.3840     -3.8714     -1.1480
    17         H         -0.3752     -1.8319     -1.7540
    18         H          0.1607     -4.7368     -0.7818
    19         H         -1.4432     -4.0347     -1.3278
    20         O          1.2812     -3.0977      1.6690
    21         C          0.0176     -3.1922      1.9148
    22         C         -0.4714     -4.5252      2.1711
    23         C         -1.8119     -4.7477      2.2471
    24         C         -2.7583     -3.6674      2.1141
    25         C         -2.3290     -2.3879      1.9854
    26         C         -0.8981     -2.0347      1.9051
    27         H          0.2682     -5.3225      2.2606
    28         H         -2.2045     -5.7566      2.4107
    29         H         -3.8203     -3.9122      2.1341
    30         H         -3.0317     -1.5509      1.9175
    31         C         -0.5031     -0.8856      2.8628
    32         H         -0.7667     -1.5033      0.7618
    33         C          0.6106     -1.2565      3.8000
    34         H         -1.3932     -0.6027      3.4798
    35         H         -0.2193      0.0125      2.2484
    36         C          1.8054     -0.6684      3.7891
    37         H          0.3635     -2.0455      4.5136
    38         H          2.0732      0.1158      3.0768
    39         H          2.5924     -0.9407      4.4908
    40         H          4.0624     -1.8498     -0.1525

 General Reference for PM6:
 "Optimization of Parameters for Semiempirical Methods V: Modification of NDDO Approximations
 and Application to 70 Elements", J. J. P. Stewart, J. Mol. Mod., 13, 1173-1213 (2007)
 URL: https://link.springer.com/article/10.1007/s00894-007-0233-4

           Empirical Formula: C18 H20 O2  =    40 atoms



      MOLECULAR POINT GROUP   :   C1  


      RHF CALCULATION, NO. OF DOUBLY OCCUPIED LEVELS = 52



          HEAT OF FORMATION =      20.121073 KCALS/MOLE


          GRADIENT NORM =   0.19845


          TIME FOR SCF CALCULATION =    0.09

          TIME FOR DERIVATIVES     =    0.03

          MOLECULAR WEIGHT =  268.35


          ESTIMATED TIME TO COMPLETE CALCULATION =       28.12 SECONDS

    FOR POINT-GROUP C1   THERE ARE   1 UNIQUE SYMMETRY FUNCTIONS.

 STEP:   1 TIME =     0.06 SECS, INTEGRAL =      0.06 TIME LEFT: 172799.82
 STEP:   2 TIME =     0.06 SECS, INTEGRAL =      0.12 TIME LEFT: 172799.76
 STEP:   3 TIME =     0.06 SECS, INTEGRAL =      0.19 TIME LEFT: 172799.70
 STEP:   4 TIME =     0.06 SECS, INTEGRAL =      0.25 TIME LEFT: 172799.63
 STEP:   5 TIME =     0.07 SECS, INTEGRAL =      0.32 TIME LEFT: 172799.56
 STEP:   6 TIME =     0.07 SECS, INTEGRAL =      0.39 TIME LEFT: 172799.49
 STEP:   7 TIME =     0.07 SECS, INTEGRAL =      0.46 TIME LEFT: 172799.42
 STEP:   8 TIME =     0.07 SECS, INTEGRAL =      0.53 TIME LEFT: 172799.35
 STEP:   9 TIME =     0.06 SECS, INTEGRAL =      0.59 TIME LEFT: 172799.29
 STEP:  10 TIME =     0.11 SECS, INTEGRAL =      0.70 TIME LEFT: 172799.18
 STEP:  11 TIME =     0.14 SECS, INTEGRAL =      0.84 TIME LEFT: 172799.04
 STEP:  12 TIME =     0.12 SECS, INTEGRAL =      0.96 TIME LEFT: 172798.92
 STEP:  13 TIME =     0.09 SECS, INTEGRAL =      1.05 TIME LEFT: 172798.83
 STEP:  14 TIME =     0.07 SECS, INTEGRAL =      1.12 TIME LEFT: 172798.76
 STEP:  15 TIME =     0.07 SECS, INTEGRAL =      1.20 TIME LEFT: 172798.69
 STEP:  16 TIME =     0.08 SECS, INTEGRAL =      1.27 TIME LEFT: 172798.61
 STEP:  17 TIME =     0.07 SECS, INTEGRAL =      1.34 TIME LEFT: 172798.54
 STEP:  18 TIME =     0.07 SECS, INTEGRAL =      1.41 TIME LEFT: 172798.47
 STEP:  19 TIME =     0.07 SECS, INTEGRAL =      1.48 TIME LEFT: 172798.40
 STEP:  20 TIME =     0.06 SECS, INTEGRAL =      1.55 TIME LEFT: 172798.34
 STEP:  21 TIME =     0.06 SECS, INTEGRAL =      1.61 TIME LEFT: 172798.27
 STEP:  22 TIME =     0.07 SECS, INTEGRAL =      1.68 TIME LEFT: 172798.20
 STEP:  23 TIME =     0.05 SECS, INTEGRAL =      1.73 TIME LEFT: 172798.15
 STEP:  24 TIME =     0.05 SECS, INTEGRAL =      1.79 TIME LEFT: 172798.09
 STEP:  25 TIME =     0.06 SECS, INTEGRAL =      1.85 TIME LEFT: 172798.03
 STEP:  26 TIME =     0.06 SECS, INTEGRAL =      1.91 TIME LEFT: 172797.97
 STEP:  27 TIME =     0.06 SECS, INTEGRAL =      1.98 TIME LEFT: 172797.91
 STEP:  28 TIME =     0.06 SECS, INTEGRAL =      2.04 TIME LEFT: 172797.84
 STEP:  29 TIME =     0.06 SECS, INTEGRAL =      2.10 TIME LEFT: 172797.78
 STEP:  30 TIME =     0.06 SECS, INTEGRAL =      2.16 TIME LEFT: 172797.72
 STEP:  31 TIME =     0.07 SECS, INTEGRAL =      2.23 TIME LEFT: 172797.65
 STEP:  32 TIME =     0.06 SECS, INTEGRAL =      2.30 TIME LEFT: 172797.59
 STEP:  33 TIME =     0.06 SECS, INTEGRAL =      2.36 TIME LEFT: 172797.52
 STEP:  34 TIME =     0.07 SECS, INTEGRAL =      2.43 TIME LEFT: 172797.45
 STEP:  35 TIME =     0.06 SECS, INTEGRAL =      2.49 TIME LEFT: 172797.39
 STEP:  36 TIME =     0.06 SECS, INTEGRAL =      2.55 TIME LEFT: 172797.33
 STEP:  37 TIME =     0.06 SECS, INTEGRAL =      2.62 TIME LEFT: 172797.27
 STEP:  38 TIME =     0.06 SECS, INTEGRAL =      2.68 TIME LEFT: 172797.20
 STEP:  39 TIME =     0.07 SECS, INTEGRAL =      2.75 TIME LEFT: 172797.13
 STEP:  40 TIME =     0.06 SECS, INTEGRAL =      2.81 TIME LEFT: 172797.07
 STEP:  41 TIME =     0.06 SECS, INTEGRAL =      2.88 TIME LEFT: 172797.01
 STEP:  42 TIME =     0.07 SECS, INTEGRAL =      2.95 TIME LEFT: 172796.94
 STEP:  43 TIME =     0.06 SECS, INTEGRAL =      3.01 TIME LEFT: 172796.88
 STEP:  44 TIME =     0.06 SECS, INTEGRAL =      3.07 TIME LEFT: 172796.81
 STEP:  45 TIME =     0.05 SECS, INTEGRAL =      3.12 TIME LEFT: 172796.76
 STEP:  46 TIME =     0.06 SECS, INTEGRAL =      3.19 TIME LEFT: 172796.70
 STEP:  47 TIME =     0.06 SECS, INTEGRAL =      3.25 TIME LEFT: 172796.63
 STEP:  48 TIME =     0.07 SECS, INTEGRAL =      3.32 TIME LEFT: 172796.56
 STEP:  49 TIME =     0.06 SECS, INTEGRAL =      3.38 TIME LEFT: 172796.50
 STEP:  50 TIME =     0.06 SECS, INTEGRAL =      3.45 TIME LEFT: 172796.44
 STEP:  51 TIME =     0.06 SECS, INTEGRAL =      3.51 TIME LEFT: 172796.38
 STEP:  52 TIME =     0.06 SECS, INTEGRAL =      3.57 TIME LEFT: 172796.31
 STEP:  53 TIME =     0.06 SECS, INTEGRAL =      3.63 TIME LEFT: 172796.25
 STEP:  54 TIME =     0.06 SECS, INTEGRAL =      3.70 TIME LEFT: 172796.19
 STEP:  55 TIME =     0.06 SECS, INTEGRAL =      3.76 TIME LEFT: 172796.12
 STEP:  56 TIME =     0.06 SECS, INTEGRAL =      3.82 TIME LEFT: 172796.06
 STEP:  57 TIME =     0.06 SECS, INTEGRAL =      3.88 TIME LEFT: 172796.00
 STEP:  58 TIME =     0.06 SECS, INTEGRAL =      3.95 TIME LEFT: 172795.94
 STEP:  59 TIME =     0.07 SECS, INTEGRAL =      4.02 TIME LEFT: 172795.87
 STEP:  60 TIME =     0.06 SECS, INTEGRAL =      4.08 TIME LEFT: 172795.80
 STEP:  61 TIME =     0.06 SECS, INTEGRAL =      4.14 TIME LEFT: 172795.74
 STEP:  62 TIME =     0.06 SECS, INTEGRAL =      4.20 TIME LEFT: 172795.68
 STEP:  63 TIME =     0.06 SECS, INTEGRAL =      4.27 TIME LEFT: 172795.62
 STEP:  64 TIME =     0.07 SECS, INTEGRAL =      4.34 TIME LEFT: 172795.55
 STEP:  65 TIME =     0.06 SECS, INTEGRAL =      4.40 TIME LEFT: 172795.48
 STEP:  66 TIME =     0.07 SECS, INTEGRAL =      4.47 TIME LEFT: 172795.41
 STEP:  67 TIME =     0.06 SECS, INTEGRAL =      4.53 TIME LEFT: 172795.35
 STEP:  68 TIME =     0.07 SECS, INTEGRAL =      4.60 TIME LEFT: 172795.28
 STEP:  69 TIME =     0.07 SECS, INTEGRAL =      4.67 TIME LEFT: 172795.21
 STEP:  70 TIME =     0.07 SECS, INTEGRAL =      4.74 TIME LEFT: 172795.14
 STEP:  71 TIME =     0.06 SECS, INTEGRAL =      4.80 TIME LEFT: 172795.08
 STEP:  72 TIME =     0.07 SECS, INTEGRAL =      4.88 TIME LEFT: 172795.01
 STEP:  73 TIME =     0.06 SECS, INTEGRAL =      4.94 TIME LEFT: 172794.95
 STEP:  74 TIME =     0.06 SECS, INTEGRAL =      5.00 TIME LEFT: 172794.88
 STEP:  75 TIME =     0.07 SECS, INTEGRAL =      5.07 TIME LEFT: 172794.81
 STEP:  76 TIME =     0.06 SECS, INTEGRAL =      5.13 TIME LEFT: 172794.75
 STEP:  77 TIME =     0.07 SECS, INTEGRAL =      5.20 TIME LEFT: 172794.68
 STEP:  78 TIME =     0.06 SECS, INTEGRAL =      5.27 TIME LEFT: 172794.62
 STEP:  79 TIME =     0.06 SECS, INTEGRAL =      5.33 TIME LEFT: 172794.55
 STEP:  80 TIME =     0.06 SECS, INTEGRAL =      5.39 TIME LEFT: 172794.49
 STEP:  81 TIME =     0.06 SECS, INTEGRAL =      5.45 TIME LEFT: 172794.43
 STEP:  82 TIME =     0.06 SECS, INTEGRAL =      5.52 TIME LEFT: 172794.37
 STEP:  83 TIME =     0.05 SECS, INTEGRAL =      5.57 TIME LEFT: 172794.31
 STEP:  84 TIME =     0.06 SECS, INTEGRAL =      5.63 TIME LEFT: 172794.25
 STEP:  85 TIME =     0.05 SECS, INTEGRAL =      5.69 TIME LEFT: 172794.20
 STEP:  86 TIME =     0.07 SECS, INTEGRAL =      5.76 TIME LEFT: 172794.12
 STEP:  87 TIME =     0.06 SECS, INTEGRAL =      5.82 TIME LEFT: 172794.06
 STEP:  88 TIME =     0.06 SECS, INTEGRAL =      5.88 TIME LEFT: 172794.00
 STEP:  89 TIME =     0.07 SECS, INTEGRAL =      5.95 TIME LEFT: 172793.93
 STEP:  90 TIME =     0.06 SECS, INTEGRAL =      6.02 TIME LEFT: 172793.87
 STEP:  91 TIME =     0.06 SECS, INTEGRAL =      6.08 TIME LEFT: 172793.80
 STEP:  92 TIME =     0.07 SECS, INTEGRAL =      6.15 TIME LEFT: 172793.73
 STEP:  93 TIME =     0.07 SECS, INTEGRAL =      6.22 TIME LEFT: 172793.66
 STEP:  94 TIME =     0.06 SECS, INTEGRAL =      6.28 TIME LEFT: 172793.60
 STEP:  95 TIME =     0.07 SECS, INTEGRAL =      6.35 TIME LEFT: 172793.53
 STEP:  96 TIME =     0.06 SECS, INTEGRAL =      6.41 TIME LEFT: 172793.47
 STEP:  97 TIME =     0.06 SECS, INTEGRAL =      6.48 TIME LEFT: 172793.41
 STEP:  98 TIME =     0.06 SECS, INTEGRAL =      6.54 TIME LEFT: 172793.34
 STEP:  99 TIME =     0.06 SECS, INTEGRAL =      6.60 TIME LEFT: 172793.28
 STEP: 100 TIME =     0.06 SECS, INTEGRAL =      6.66 TIME LEFT: 172793.22
 STEP: 101 TIME =     0.06 SECS, INTEGRAL =      6.73 TIME LEFT: 172793.16
 STEP: 102 TIME =     0.05 SECS, INTEGRAL =      6.78 TIME LEFT: 172793.10
 STEP: 103 TIME =     0.06 SECS, INTEGRAL =      6.84 TIME LEFT: 172793.04
 STEP: 104 TIME =     0.06 SECS, INTEGRAL =      6.91 TIME LEFT: 172792.98
 STEP: 105 TIME =     0.06 SECS, INTEGRAL =      6.97 TIME LEFT: 172792.91
 STEP: 106 TIME =     0.06 SECS, INTEGRAL =      7.03 TIME LEFT: 172792.85
 STEP: 107 TIME =     0.06 SECS, INTEGRAL =      7.09 TIME LEFT: 172792.79
 STEP: 108 TIME =     0.06 SECS, INTEGRAL =      7.16 TIME LEFT: 172792.73
 STEP: 109 TIME =     0.06 SECS, INTEGRAL =      7.22 TIME LEFT: 172792.66
 STEP: 110 TIME =     0.06 SECS, INTEGRAL =      7.28 TIME LEFT: 172792.60
 STEP: 111 TIME =     0.06 SECS, INTEGRAL =      7.34 TIME LEFT: 172792.54
 STEP: 112 TIME =     0.06 SECS, INTEGRAL =      7.41 TIME LEFT: 172792.48
 STEP: 113 TIME =     0.06 SECS, INTEGRAL =      7.47 TIME LEFT: 172792.41
 STEP: 114 TIME =     0.06 SECS, INTEGRAL =      7.53 TIME LEFT: 172792.35
 STEP: 115 TIME =     0.06 SECS, INTEGRAL =      7.59 TIME LEFT: 172792.29
 STEP: 116 TIME =     0.06 SECS, INTEGRAL =      7.66 TIME LEFT: 172792.23
 STEP: 117 TIME =     0.06 SECS, INTEGRAL =      7.72 TIME LEFT: 172792.16
 STEP: 118 TIME =     0.05 SECS, INTEGRAL =      7.77 TIME LEFT: 172792.11
 STEP: 119 TIME =     0.06 SECS, INTEGRAL =      7.84 TIME LEFT: 172792.05
 STEP: 120 TIME =     0.06 SECS, INTEGRAL =      7.90 TIME LEFT: 172791.98
           INITIAL VELOCITY IN DRC (Angstroms/Femtosecond)
        -0.02142        -0.00870         0.02467
         0.02249        -0.00639         0.00947
        -0.01011        -0.01091         0.00255
         0.00658        -0.00594         0.00005
        -0.00298         0.00936         0.00182
        -0.01445        -0.00407         0.00103
         0.01406         0.01397        -0.05587
        -0.00331        -0.00679         0.00770
        -0.00665         0.00038        -0.00170
        -0.00323        -0.00364         0.00478
        -0.00117         0.00328         0.00890
        -0.03598        -0.00962         0.33194
        -0.00028         0.00071         0.00136
        -0.00104         0.01459         0.02077
        -0.00152        -0.01575         0.00743
        -0.00017        -0.00016         0.00031
         0.00149        -0.00191        -0.00392
        -0.00007         0.00018         0.00024
         0.00018        -0.00228        -0.00201
         0.01269        -0.00769         0.00231
        -0.02921         0.01276        -0.00068
         0.00610         0.00479        -0.01106
        -0.00495         0.00556        -0.00221
         0.00299        -0.00492        -0.00190
         0.01414        -0.00069        -0.01185
         0.00151        -0.00459         0.01644
        -0.00195         0.00035        -0.01122
         0.00485         0.00291         0.00388
         0.00232         0.00488        -0.00431
         0.00888        -0.00154        -0.00481
         0.00115        -0.00018        -0.00684
         0.11024         0.10513        -0.16599
         0.00010         0.00033        -0.00176
         0.00059         0.00003        -0.00644
         0.00234         0.00325        -0.00377
         0.00003         0.00033        -0.00060
        -0.00235         0.00337        -0.00094
         0.00065         0.00243        -0.00102
        -0.00003         0.00354         0.00030
        -0.00626         0.00295         0.00648


     POINT   POTENTIAL  +  ENERGY LOST   =   TOTAL      ERROR    REF%   MOVEMENT
       1      20.12108      0.00000         20.12108   0.00000     1   %  0.0000
       2      18.23826      0.00000         18.23826  -1.88282     2   %  0.4424
       3      17.84842      0.00000         17.84842  -0.38984     3   %  0.4891
       4      17.64638      0.20313         17.84952  -0.38874     4   %  0.4979
       5      17.56159      0.28793         17.84952  -0.38874     5   %  0.5019
       6      17.44209      0.40759         17.84969  -0.38857     6   %  0.5079
       7      17.31095      0.53865         17.84960  -0.38866     7   %  0.5147
       8      17.12488      0.72433         17.84920  -0.38906     8   %  0.5247
       9      16.99118      0.85756         17.84873  -0.38953     9   %  0.5322
      10      16.90294      0.94559         17.84853  -0.38973    10   %  0.5372
      11      16.81566      1.03267         17.84833  -0.38993    11   %  0.5423
      12      16.72626      1.12184         17.84810  -0.39016    12   %  0.5475
      13      16.64336      1.20451         17.84788  -0.39038    13   %  0.5524
      14      16.56366      1.28401         17.84767  -0.39059    14   %  0.5571
      15      16.48455      1.36291         17.84746  -0.39080    15   %  0.5618
      16      16.40629      1.44096         17.84725  -0.39100    16   %  0.5665
      17      16.32873      1.51832         17.84705  -0.39121    17   %  0.5712
      18      16.25135      1.59550         17.84685  -0.39141    18   %  0.5759
      19      16.17387      1.67277         17.84665  -0.39161    19   %  0.5805
      20      16.09608      1.75036         17.84645  -0.39181    20   %  0.5853
      21      16.01772      1.82852         17.84625  -0.39201    21   %  0.5900
      22      15.93853      1.90752         17.84605  -0.39221    22   %  0.5948
      23      15.85824      1.98761         17.84585  -0.39241    23   %  0.5997
      24      15.77655      2.06910         17.84566  -0.39260    24   %  0.6047
      25      15.69313      2.15234         17.84547  -0.39279    25   %  0.6098
      26      15.60756      2.23771         17.84528  -0.39298    26   %  0.6150
      27      15.51936      2.32573         17.84509  -0.39317    27   %  0.6204
      28      15.42788      2.41703         17.84490  -0.39336    28   %  0.6260
      29      15.33227      2.51245         17.84472  -0.39354    29   %  0.6319
      30      15.23134      2.61320         17.84455  -0.39371    30   %  0.6381
      31      15.12328      2.72109         17.84438  -0.39388    31   %  0.6448
      32      15.00508      2.83914         17.84422  -0.39404    32   %  0.6521
      33      14.87099      2.97310         17.84409  -0.39417    33   %  0.6604
      34      14.70687      3.13713         17.84401  -0.39425    34   %  0.6706
      35      14.47470      3.36946         17.84416  -0.39410    35   %  0.6851
      36      14.20834      3.63655         17.84489  -0.39337    36   %  0.7020
      37      14.07066      3.77461         17.84527  -0.39299    37   %  0.7108
      38      13.97131      3.87420         17.84551  -0.39275    38   %  0.7172
      39      13.88128      3.96440         17.84568  -0.39258    39   %  0.7231
      40      13.78380      4.06209         17.84588  -0.39238    40   %  0.7295
      41      13.68796      4.15815         17.84610  -0.39215    41   %  0.7358
      42      13.59817      4.24816         17.84633  -0.39193    42   %  0.7418
      43      13.51381      4.33273         17.84654  -0.39172    43   %  0.7475
      44      13.43315      4.41360         17.84675  -0.39151    44   %  0.7530
      45      13.35539      4.49157         17.84696  -0.39130    45   %  0.7583
      46      13.28029      4.56688         17.84717  -0.39109    46   %  0.7635
      47      13.20767      4.63971         17.84738  -0.39088    47   %  0.7685
      48      13.13733      4.71026         17.84759  -0.39067    48   %  0.7734
      49      13.06905      4.77874         17.84779  -0.39047    49   %  0.7783
      50      13.00267      4.84533         17.84800  -0.39026    50   %  0.7830
      51      12.93804      4.91017         17.84820  -0.39006    51   %  0.7877
      52      12.87503      4.97337         17.84841  -0.38985    52   %  0.7923
      53      12.81355      5.03506         17.84861  -0.38965    53   %  0.7968
      54      12.75350      5.09532         17.84881  -0.38945    54   %  0.8012
      55      12.69478      5.15424         17.84902  -0.38924    55   %  0.8056
      56      12.63732      5.21190         17.84922  -0.38904    56   %  0.8100
      57      12.58105      5.26837         17.84942  -0.38884    57   %  0.8143
      58      12.52592      5.32370         17.84962  -0.38864    58   %  0.8186
      59      12.47185      5.37797         17.84982  -0.38844    59   %  0.8228
      60      12.41881      5.43121         17.85002  -0.38824    60   %  0.8270
      61      12.36674      5.48349         17.85022  -0.38803    61   %  0.8311
      62      12.31560      5.53483         17.85042  -0.38783    62   %  0.8352
      63      12.26535      5.58528         17.85062  -0.38763    63   %  0.8393
      64      12.21595      5.63488         17.85082  -0.38743    64   %  0.8434
      65      12.16737      5.68366         17.85102  -0.38723    65   %  0.8474
      66      12.11957      5.73165         17.85122  -0.38704    66   %  0.8514
      67      12.07253      5.77890         17.85142  -0.38684    67   %  0.8554
      68      12.02621      5.82541         17.85162  -0.38664    68   %  0.8594
      69      11.98059      5.87123         17.85182  -0.38644    69   %  0.8634
      70      11.93565      5.91637         17.85202  -0.38624    70   %  0.8673
      71      11.89136      5.96086         17.85222  -0.38604    71   %  0.8713
      72      11.84769      6.00473         17.85241  -0.38585    72   %  0.8752
      73      11.80463      6.04798         17.85261  -0.38565    73   %  0.8792
      74      11.76215      6.09066         17.85281  -0.38545    74   %  0.8831
      75      11.72024      6.13277         17.85301  -0.38525    75   %  0.8870
      76      11.67887      6.17433         17.85320  -0.38506    76   %  0.8909
      77      11.63803      6.21537         17.85340  -0.38486    77   %  0.8948
      78      11.59770      6.25590         17.85360  -0.38466    78   %  0.8987
      79      11.55786      6.29593         17.85379  -0.38447    79   %  0.9027
      80      11.51850      6.33549         17.85399  -0.38427    80   %  0.9066
      81      11.47960      6.37459         17.85419  -0.38407    81   %  0.9105
      82      11.44114      6.41324         17.85438  -0.38388    82   %  0.9144
      83      11.40311      6.45147         17.85458  -0.38368    83   %  0.9183
      84      11.36549      6.48928         17.85477  -0.38349    84   %  0.9223
      85      11.32827      6.52670         17.85497  -0.38329    85   %  0.9262
      86      11.29143      6.56373         17.85516  -0.38310    86   %  0.9302
      87      11.25497      6.60039         17.85536  -0.38290    87   %  0.9342
      88      11.21886      6.63670         17.85555  -0.38271    88   %  0.9382
      89      11.18308      6.67266         17.85575  -0.38251    89   %  0.9422
      90      11.14764      6.70830         17.85594  -0.38232    90   %  0.9462
      91      11.11251      6.74362         17.85613  -0.38212    91   %  0.9502
      92      11.07768      6.77865         17.85633  -0.38193    92   %  0.9543
      93      11.04313      6.81339         17.85652  -0.38174    93   %  0.9584
      94      11.00886      6.84786         17.85672  -0.38154    94   %  0.9625
      95      10.97484      6.88207         17.85691  -0.38135    95   %  0.9666
      96      10.94106      6.91604         17.85710  -0.38116    96   %  0.9707
      97      10.90752      6.94977         17.85729  -0.38096    97   %  0.9749
      98      10.87419      6.98330         17.85749  -0.38077    98   %  0.9791
      99      10.84106      7.01661         17.85768  -0.38058    99   %  0.9834
     100      10.80812      7.04975         17.85787  -0.38039   100   %  0.9876


          FINAL GEOMETRY OBTAINED                                 CHARGE
 PM6-D3H4 CHARGE=0 IRC=-1 LARGE=100 LET CYCLES=10000
 (irc)

   O    0.000000  0    0.000000  0    0.000000  0   0  0  0   -0.5998     100AA*
   C    1.233823  1    0.000000  0    0.000000  0   1  0  0    0.5982     100AB*
   C    1.464167  1  120.029562  1    0.000000  0   2  1  0   -0.4327     100AC*
   C    1.351458  1  121.807834  1  172.132440  1   3  2  1    0.0564     100AD*
   C    1.443319  1  120.981397  1    0.258877  1   4  3  2   -0.3298     100AE*
   C    1.354049  1  119.970058  1    3.853606  1   5  4  3    0.0306     100AF*
   C    1.459842  1  122.294930  1  351.531636  1   6  5  4   -0.4002     100AG*
   H    1.088767  1  115.282351  1  350.637658  1   3  2  1    0.1873     100AH*
   H    1.092384  1  121.230825  1  179.680535  1   4  3  2    0.1348     100AI*
   H    1.086956  1  118.385049  1  181.400225  1   5  4  3    0.1653     100AJ*
   C    1.523717  1  115.931120  1  159.546885  1   7  6  5   -0.2298     100AK*
   H    1.250408  1   97.226215  1  267.034980  1   7  6  5    0.3299     100AL*
   C    1.503371  1  113.828976  1  178.804986  1  11  7  6   -0.0692     100AM*
   H    1.121550  1  107.842622  1   56.578683  1  11  7  6    0.1504     100AN*
   H    1.120019  1  109.028858  1  298.978911  1  11  7  6    0.1459     100AO*
   C    1.332148  1  124.062292  1  239.926907  1  13 11  7   -0.4002     100AP*
   H    1.096934  1  114.331558  1   60.444733  1  13 11  7    0.1578     100AQ*
   H    1.087456  1  123.048047  1    1.069599  1  16 13 11    0.1559     100AR*
   H    1.087559  1  121.831806  1  181.494491  1  16 13 11    0.1538     100AS*
   O    1.511659  1  150.088808  1  238.651683  1  12  7  6   -0.5417     100AT*
   C    1.238197  1  117.576193  1  271.542220  1  20 12  7    0.5938     100AU*
   C    1.462037  1  117.620695  1  156.792255  1  21 20 12   -0.4056     100AV*
   C    1.346883  1  120.998635  1  189.965137  1  22 21 20    0.0523     100AW*
   C    1.453776  1  121.437510  1  357.747437  1  23 22 21   -0.2905     100AX*
   C    1.345831  1  120.675577  1  356.247352  1  24 23 22   -0.0092     100AY*
   C    1.508165  1  123.461177  1  339.202658  1  21 20 12   -0.3249     100B@*
   H    1.090288  1  115.518787  1    7.927684  1  22 21 20    0.1923     100BA*
   H    1.093057  1  121.251060  1  177.903010  1  23 22 21    0.1391     100BB*
   H    1.089070  1  117.532148  1  177.137344  1  24 23 22    0.1656     100BC*
   H    1.093033  1  122.023898  1  181.720550  1  25 24 23    0.1475     100BD*
   C    1.546777  1  113.882316  1  302.579159  1  26 21 20   -0.2444     100BE*
   H    1.163958  1  104.293293  1   59.850864  1  26 21 20    0.2704     100BF*
   C    1.501878  1  113.443391  1  350.289127  1  31 26 21   -0.1084     100BG*
   H    1.119280  1  109.225731  1  229.910686  1  31 26 21    0.1491     100BH*
   H    1.121007  1  108.214972  1  113.153678  1  31 26 21    0.1650     100BI*
   C    1.331865  1  123.544416  1  115.498394  1  33 31 26   -0.3428     100BJ*
   H    1.092201  1  114.621197  1  294.962240  1  33 31 26    0.1378     100BK*
   H    1.089279  1  122.841600  1  358.381394  1  36 33 31    0.1570     100BL*
   H    1.088308  1  122.068575  1  179.077504  1  36 33 31    0.1527     100BM*
   H    1.092947  1  121.141019  1  175.499328  1   6  5  4    0.1404     100BN*


     POINT   POTENTIAL  +  ENERGY LOST   =   TOTAL      ERROR    REF%   MOVEMENT
     101      10.77536      7.08271         17.85806  -0.38020   101   %  0.9920
     102      10.74275      7.11551         17.85826  -0.38000   102   %  0.9963
     103      10.71028      7.14816         17.85845  -0.37981   103   %  1.0007
     104      10.67795      7.18069         17.85864  -0.37962   104   %  1.0051
     105      10.64572      7.21310         17.85883  -0.37943   105   %  1.0096
     106      10.61360      7.24542         17.85902  -0.37924   106   %  1.0141
     107      10.58156      7.27765         17.85921  -0.37905   107   %  1.0187
     108      10.54959      7.30981         17.85940  -0.37886   108   %  1.0233
     109      10.51768      7.34192         17.85959  -0.37867   109   %  1.0279
     110      10.48580      7.37399         17.85978  -0.37848   110   %  1.0326
     111      10.45394      7.40603         17.85997  -0.37829   111   %  1.0374
     112      10.42209      7.43807         17.86016  -0.37810   112   %  1.0423
     113      10.39023      7.47012         17.86035  -0.37791   113   %  1.0471
     114      10.35834      7.50220         17.86054  -0.37772   114   %  1.0521
     115      10.32642      7.53431         17.86073  -0.37753   115   %  1.0571
     116      10.29444      7.56648         17.86092  -0.37734   116   %  1.0622
     117      10.26238      7.59872         17.86111  -0.37715   117   %  1.0674
     118      10.23025      7.63105         17.86130  -0.37696   118   %  1.0726
     119      10.19800      7.66348         17.86149  -0.37677   119   %  1.0779
     120      10.16565      7.69603         17.86167  -0.37658   120   %  1.0833
     121      10.13316      7.72870         17.86186  -0.37640   121   %  1.0888
     122      10.10053      7.76152         17.86205  -0.37621   122   %  1.0944
     123      10.06774      7.79450         17.86224  -0.37602   123   %  1.1000
     124      10.03477      7.82765         17.86243  -0.37583   124   %  1.1057
     125      10.00163      7.86099         17.86262  -0.37564   125   %  1.1116
     126       9.96829      7.89452         17.86280  -0.37546   126   %  1.1175
     127       9.93474      7.92825         17.86299  -0.37527   127   %  1.1235
     128       9.90098      7.96220         17.86318  -0.37508   128   %  1.1296
     129       9.86698      7.99638         17.86337  -0.37489   129   %  1.1359
     130       9.83276      8.03080         17.86356  -0.37470   130   %  1.1422
     131       9.79828      8.06546         17.86374  -0.37452   131   %  1.1486
     132       9.76356      8.10037         17.86393  -0.37433   132   %  1.1552
     133       9.72857      8.13555         17.86412  -0.37414   133   %  1.1618
     134       9.69329      8.17099         17.86428  -0.37398   134   %  1.1686
     135       9.65521      8.20929         17.86450  -0.37376   135   %  1.1760
     136       9.61960      8.24509         17.86469  -0.37357   136   %  1.1829
     137       9.58357      8.28131         17.86487  -0.37338   137   %  1.1901
     138       9.54718      8.31788         17.86506  -0.37320   138   %  1.1973
     139       9.51047      8.35478         17.86525  -0.37301   139   %  1.2047
     140       9.47347      8.39197         17.86544  -0.37282   140   %  1.2122
     141       9.43616      8.42947         17.86563  -0.37263   141   %  1.2198
     142       9.39854      8.46728         17.86582  -0.37244   142   %  1.2276
     143       9.36059      8.50541         17.86600  -0.37226   143   %  1.2355
     144       9.32233      8.54387         17.86619  -0.37207   144   %  1.2435
     145       9.28373      8.58265         17.86638  -0.37188   145   %  1.2517
     146       9.24479      8.62178         17.86657  -0.37169   146   %  1.2600
     147       9.20551      8.66124         17.86676  -0.37150   147   %  1.2685
     148       9.16588      8.70106         17.86695  -0.37131   148   %  1.2771
     149       9.12590      8.74124         17.86713  -0.37112   149   %  1.2859
     150       9.08554      8.78178         17.86732  -0.37094   150   %  1.2948
     151       9.04482      8.82270         17.86751  -0.37075   151   %  1.3039
     152       9.00371      8.86399         17.86770  -0.37056   152   %  1.3131
     153       8.96222      8.90567         17.86789  -0.37037   153   %  1.3225
     154       8.92033      8.94775         17.86808  -0.37018   154   %  1.3321
     155       8.87804      8.99023         17.86827  -0.36999   155   %  1.3418
     156       8.83535      9.03311         17.86846  -0.36980   156   %  1.3517
     157       8.79224      9.07641         17.86865  -0.36961   157   %  1.3618
     158       8.74872      9.12012         17.86884  -0.36942   158   %  1.3721
     159       8.70477      9.16425         17.86903  -0.36923   159   %  1.3825
     160       8.66041      9.20881         17.86921  -0.36904   160   %  1.3931
     161       8.61562      9.25378         17.86940  -0.36885   161   %  1.4039
     162       8.57041      9.29918         17.86959  -0.36866   162   %  1.4149
     163       8.52478      9.34500         17.86978  -0.36847   163   %  1.4260
     164       8.47874      9.39124         17.86997  -0.36828   164   %  1.4374
     165       8.43228      9.43788         17.87017  -0.36809   165   %  1.4489
     166       8.38542      9.48493         17.87036  -0.36790   166   %  1.4606
     167       8.33817      9.53238         17.87055  -0.36771   167   %  1.4725
     168       8.29053      9.58020         17.87074  -0.36752   168   %  1.4846
     169       8.24252      9.62841         17.87093  -0.36733   169   %  1.4968
     170       8.19415      9.67697         17.87112  -0.36714   170   %  1.5092
     171       8.14544      9.72587         17.87131  -0.36695   171   %  1.5218
     172       8.09639      9.77511         17.87150  -0.36676   172   %  1.5346
     173       8.04703      9.82467         17.87170  -0.36656   173   %  1.5476
     174       7.99737      9.87452         17.87189  -0.36637   174   %  1.5607
     175       7.94743      9.92465         17.87208  -0.36618   175   %  1.5740
     176       7.89722      9.97505         17.87227  -0.36599   176   %  1.5874
     177       7.84676     10.02570         17.87247  -0.36579   177   %  1.6010
     178       7.79609     10.07654         17.87263  -0.36563   178   %  1.6148
     179       7.74032     10.13254         17.87286  -0.36540   179   %  1.6301
     180       7.68909     10.18397         17.87305  -0.36520   180   %  1.6443
     181       7.63831     10.23493         17.87324  -0.36501   181   %  1.6584
     182       7.58700     10.28644         17.87344  -0.36482   182   %  1.6729
     183       7.53535     10.33828         17.87363  -0.36463   183   %  1.6875
     184       7.48357     10.39026         17.87383  -0.36443   184   %  1.7023
     185       7.43170     10.44232         17.87402  -0.36424   185   %  1.7172
     186       7.37972     10.49450         17.87421  -0.36405   186   %  1.7323
     187       7.32763     10.54677         17.87441  -0.36385   187   %  1.7475
     188       7.27546     10.59914         17.87460  -0.36366   188   %  1.7629
     189       7.22320     10.65159         17.87480  -0.36346   189   %  1.7784
     190       7.17088     10.70411         17.87499  -0.36327   190   %  1.7941
     191       7.11850     10.75669         17.87518  -0.36307   191   %  1.8099
     192       7.06606     10.80932         17.87538  -0.36288   192   %  1.8258
     193       7.01358     10.86199         17.87557  -0.36268   193   %  1.8419
     194       6.96107     10.91470         17.87577  -0.36249   194   %  1.8582
     195       6.90853     10.96743         17.87596  -0.36230   195   %  1.8745
     196       6.85597     11.02019         17.87616  -0.36210   196   %  1.8910
     197       6.80340     11.07296         17.87635  -0.36191   197   %  1.9077
     198       6.75082     11.12573         17.87655  -0.36171   198   %  1.9244
     199       6.69824     11.17850         17.87674  -0.36152   199   %  1.9413
     200       6.64567     11.23127         17.87694  -0.36132   200   %  1.9583


          FINAL GEOMETRY OBTAINED                                 CHARGE
 PM6-D3H4 CHARGE=0 IRC=-1 LARGE=100 LET CYCLES=10000
 (irc)

   O    0.000000  0    0.000000  0    0.000000  0   0  0  0   -0.5718     200AA*
   C    1.226431  1    0.000000  0    0.000000  0   1  0  0    0.5884     200AB*
   C    1.471974  1  120.016235  1    0.000000  0   2  1  0   -0.4235     200AC*
   C    1.347740  1  121.624304  1  172.897739  1   3  2  1    0.0480     200AD*
   C    1.452077  1  121.544898  1    2.285541  1   4  3  2   -0.3122     200AE*
   C    1.349672  1  120.503210  1    1.826388  1   5  4  3    0.0115     200AF*
   C    1.483596  1  121.646535  1  349.565922  1   6  5  4   -0.3550     200AG*
   H    1.089106  1  115.344647  1  352.524638  1   3  2  1    0.1877     200AH*
   H    1.092930  1  121.273569  1  180.976478  1   4  3  2    0.1362     200AI*
   H    1.088015  1  117.623419  1  179.304687  1   5  4  3    0.1648     200AJ*
   C    1.536963  1  114.650366  1  157.553699  1   7  6  5   -0.2377     200AK*
   H    1.191404  1   98.590480  1  270.023051  1   7  6  5    0.2934     200AL*
   C    1.505525  1  113.698062  1  180.770886  1  11  7  6   -0.0726     200AM*
   H    1.120722  1  107.580828  1   59.183302  1  11  7  6    0.1517     200AN*
   H    1.118390  1  108.999652  1  301.411802  1  11  7  6    0.1449     200AO*
   C    1.332445  1  124.501131  1  243.136129  1  13 11  7   -0.3937     200AP*
   H    1.096893  1  114.210333  1   63.411399  1  13 11  7    0.1559     200AQ*
   H    1.087617  1  123.076019  1    1.087662  1  16 13 11    0.1562     200AR*
   H    1.087860  1  121.825650  1  180.803330  1  16 13 11    0.1537     200AS*
   O    1.595981  1  148.383222  1  237.021974  1  12  7  6   -0.5365     200AT*
   C    1.225436  1  117.742587  1  273.865493  1  20 12  7    0.5874     200AU*
   C    1.468670  1  118.156291  1  155.997531  1  21 20 12   -0.3996     200AV*
   C    1.343603  1  121.207649  1  189.294172  1  22 21 20    0.0389     200AW*
   C    1.456400  1  121.472369  1  357.929268  1  23 22 21   -0.2802     200AX*
   C    1.344353  1  120.942013  1  356.310995  1  24 23 22   -0.0231     200AY*
   C    1.520101  1  123.134690  1  339.040222  1  21 20 12   -0.3052     200B@*
   H    1.089946  1  115.246628  1    8.006313  1  22 21 20    0.1901     200BA*
   H    1.092779  1  121.426773  1  178.458901  1  23 22 21    0.1388     200BB*
   H    1.089167  1  117.197897  1  177.455963  1  24 23 22    0.1635     200BC*
   H    1.092564  1  121.998683  1  181.938914  1  25 24 23    0.1469     200BD*
   C    1.547014  1  113.813761  1  302.877178  1  26 21 20   -0.2497     200BE*
   H    1.154280  1  103.889329  1   60.864816  1  26 21 20    0.2520     200BF*
   C    1.502418  1  113.407767  1  351.311104  1  31 26 21   -0.1026     200BG*
   H    1.119603  1  109.256253  1  231.191215  1  31 26 21    0.1491     200BH*
   H    1.120014  1  108.361099  1  114.265245  1  31 26 21    0.1616     200BI*
   C    1.331926  1  123.894719  1  115.648228  1  33 31 26   -0.3457     200BJ*
   H    1.092576  1  114.421953  1  295.588465  1  33 31 26    0.1372     200BK*
   H    1.088601  1  122.900858  1  358.664570  1  36 33 31    0.1552     200BL*
   H    1.088340  1  121.960660  1  179.611563  1  36 33 31    0.1528     200BM*
   H    1.091639  1  121.874504  1  175.446855  1   6  5  4    0.1431     200BN*


     POINT   POTENTIAL  +  ENERGY LOST   =   TOTAL      ERROR    REF%   MOVEMENT
     201       6.59310     11.28403         17.87713  -0.36113   201   %  1.9755
     202       6.54056     11.33677         17.87733  -0.36093   202   %  1.9927
     203       6.48804     11.38948         17.87752  -0.36074   203   %  2.0101
     204       6.43555     11.44217         17.87772  -0.36054   204   %  2.0277
     205       6.38309     11.49482         17.87791  -0.36034   205   %  2.0453
     206       6.33067     11.54744         17.87811  -0.36015   206   %  2.0631
     207       6.27830     11.60001         17.87830  -0.35995   207   %  2.0809
     208       6.22597     11.65253         17.87850  -0.35976   208   %  2.0989
     209       6.17370     11.70499         17.87869  -0.35956   209   %  2.1171
     210       6.12149     11.75740         17.87889  -0.35937   210   %  2.1353
     211       6.06934     11.80975         17.87909  -0.35917   211   %  2.1537
     212       6.01726     11.86202         17.87928  -0.35898   212   %  2.1722
     213       5.96525     11.91423         17.87948  -0.35878   213   %  2.1907
     214       5.91331     11.96636         17.87967  -0.35859   214   %  2.2095
     215       5.86146     12.01841         17.87987  -0.35839   215   %  2.2283
     216       5.80969     12.07037         17.88006  -0.35820   216   %  2.2472
     217       5.75801     12.12225         17.88026  -0.35800   217   %  2.2663
     218       5.70642     12.17403         17.88045  -0.35781   218   %  2.2855
     219       5.65493     12.22572         17.88065  -0.35761   219   %  2.3048
     220       5.60354     12.27731         17.88084  -0.35741   220   %  2.3242
     221       5.55225     12.32879         17.88104  -0.35722   221   %  2.3437
     222       5.50107     12.38017         17.88124  -0.35702   222   %  2.3633
     223       5.45000     12.43143         17.88143  -0.35683   223   %  2.3831
     224       5.39904     12.48258         17.88163  -0.35663   224   %  2.4029
     225       5.34821     12.53362         17.88182  -0.35644   225   %  2.4229
     226       5.29749     12.58453         17.88202  -0.35624   226   %  2.4430
     227       5.24690     12.63531         17.88221  -0.35605   227   %  2.4632
     228       5.19644     12.68597         17.88241  -0.35585   228   %  2.4835
     229       5.14610     12.73650         17.88260  -0.35565   229   %  2.5039
     230       5.09590     12.78690         17.88280  -0.35546   230   %  2.5244
     231       5.04584     12.83715         17.88300  -0.35526   231   %  2.5451
     232       4.99592     12.88727         17.88319  -0.35507   232   %  2.5658
     233       4.94614     12.93725         17.88339  -0.35487   233   %  2.5867
     234       4.89650     12.98708         17.88358  -0.35468   234   %  2.6077
     235       4.84701     13.03677         17.88378  -0.35448   235   %  2.6288
     236       4.79767     13.08630         17.88397  -0.35429   236   %  2.6499
     237       4.74849     13.13568         17.88417  -0.35409   237   %  2.6713
     238       4.69946     13.18491         17.88436  -0.35389   238   %  2.6927
     239       4.65059     13.23397         17.88456  -0.35370   239   %  2.7142
     240       4.60187     13.28288         17.88476  -0.35350   240   %  2.7358
     241       4.55332     13.33163         17.88495  -0.35331   241   %  2.7576
     242       4.50494     13.38021         17.88515  -0.35311   242   %  2.7795
     243       4.45672     13.42862         17.88534  -0.35292   243   %  2.8014
     244       4.40867     13.47687         17.88554  -0.35272   244   %  2.8235
     245       4.36079     13.52494         17.88573  -0.35253   245   %  2.8457
     246       4.31308     13.57285         17.88593  -0.35233   246   %  2.8681
     247       4.26555     13.62058         17.88612  -0.35213   247   %  2.8905
     248       4.21819     13.66813         17.88632  -0.35194   248   %  2.9131
     249       4.17101     13.71550         17.88652  -0.35174   249   %  2.9357
     250       4.12401     13.76270         17.88671  -0.35155   250   %  2.9585
     251       4.07720     13.80971         17.88691  -0.35135   251   %  2.9815
     252       4.03056     13.85654         17.88710  -0.35116   252   %  3.0045
     253       3.98411     13.90319         17.88730  -0.35096   253   %  3.0277
     254       3.93784     13.94965         17.88749  -0.35077   254   %  3.0511
     255       3.89177     13.99592         17.88769  -0.35057   255   %  3.0745
     256       3.84588     14.04200         17.88788  -0.35038   256   %  3.0982
     257       3.80018     14.08790         17.88808  -0.35018   257   %  3.1220
     258       3.75468     14.13360         17.88827  -0.34998   258   %  3.1459
     259       3.70936     14.17911         17.88847  -0.34979   259   %  3.1700
     260       3.66424     14.22442         17.88867  -0.34959   260   %  3.1943
     261       3.61932     14.26954         17.88886  -0.34940   261   %  3.2187
     262       3.57459     14.31447         17.88906  -0.34920   262   %  3.2433
     263       3.53006     14.35919         17.88925  -0.34901   263   %  3.2680
     264       3.48573     14.40372         17.88945  -0.34881   264   %  3.2929
     265       3.44159     14.44805         17.88964  -0.34862   265   %  3.3179
     266       3.39766     14.49218         17.88984  -0.34842   266   %  3.3430
     267       3.35393     14.53611         17.89003  -0.34823   267   %  3.3683
     268       3.31040     14.57983         17.89023  -0.34803   268   %  3.3937
     269       3.26707     14.62335         17.89042  -0.34784   269   %  3.4193
     270       3.22395     14.66667         17.89062  -0.34764   270   %  3.4450
     271       3.18103     14.70978         17.89081  -0.34745   271   %  3.4708
     272       3.13832     14.75269         17.89101  -0.34725   272   %  3.4968
     273       3.09581     14.79540         17.89120  -0.34705   273   %  3.5229
     274       3.05351     14.83789         17.89140  -0.34686   274   %  3.5491
     275       3.01141     14.88018         17.89159  -0.34666   275   %  3.5755
     276       2.96952     14.92227         17.89179  -0.34647   276   %  3.6020
     277       2.92785     14.96414         17.89198  -0.34627   277   %  3.6287
     278       2.88638     15.00580         17.89218  -0.34608   278   %  3.6555
     279       2.84512     15.04726         17.89238  -0.34588   279   %  3.6824
     280       2.80406     15.08851         17.89257  -0.34569   280   %  3.7095
     281       2.76322     15.12954         17.89277  -0.34549   281   %  3.7368
     282       2.72259     15.17037         17.89296  -0.34530   282   %  3.7642
     283       2.68217     15.21098         17.89316  -0.34510   283   %  3.7917
     284       2.64197     15.25138         17.89335  -0.34491   284   %  3.8194
     285       2.60197     15.29157         17.89355  -0.34471   285   %  3.8472
     286       2.56222     15.33152         17.89374  -0.34452   286   %  3.8752
     287       2.52274     15.37120         17.89394  -0.34432   287   %  3.9033
     288       2.48381     15.41033         17.89415  -0.34411   288   %  3.9314
     289       2.44625     15.44814         17.89439  -0.34387   289   %  3.9585
     290       2.41304     15.48170         17.89474  -0.34351   290   %  3.9832
     291       2.38835     15.50681         17.89516  -0.34310   291   %  4.0011
     292       2.37138     15.52398         17.89536  -0.34290   292   %  4.0140
     293       2.35443     15.54098         17.89540  -0.34286   293   %  4.0265
     294       2.33068     15.56478         17.89546  -0.34279   294   %  4.0445
     295       2.29753     15.59808         17.89561  -0.34265   295   %  4.0696
     296       2.25908     15.63683         17.89591  -0.34235   296   %  4.0994
     297       2.22830     15.66817         17.89648  -0.34178   297   %  4.1229
     298       2.21013     15.68687         17.89700  -0.34126   298   %  4.1375
     299       2.19904     15.69805         17.89708  -0.34118   299   %  4.1459
     300       2.18355     15.71355         17.89709  -0.34116   300   %  4.1581


          FINAL GEOMETRY OBTAINED                                 CHARGE
 PM6-D3H4 CHARGE=0 IRC=-1 LARGE=100 LET CYCLES=10000
 (irc)

   O    0.000000  0    0.000000  0    0.000000  0   0  0  0   -0.5554     300AA*
   C    1.222742  1    0.000000  0    0.000000  0   1  0  0    0.5824     300AB*
   C    1.475846  1  120.227044  1    0.000000  0   2  1  0   -0.4177     300AC*
   C    1.346308  1  121.747438  1  177.685129  1   3  2  1    0.0427     300AD*
   C    1.454666  1  121.298728  1    3.447002  1   4  3  2   -0.2974     300AE*
   C    1.347591  1  120.646424  1  357.907421  1   5  4  3   -0.0029     300AF*
   C    1.490547  1  122.065956  1  351.578044  1   6  5  4   -0.3283     300AG*
   H    1.089242  1  115.190291  1  357.426313  1   3  2  1    0.1875     300AH*
   H    1.092738  1  121.483176  1  181.723125  1   4  3  2    0.1372     300AI*
   H    1.088488  1  117.451089  1  175.752334  1   5  4  3    0.1643     300AJ*
   C    1.539831  1  113.154436  1  153.315951  1   7  6  5   -0.2461     300AK*
   H    1.171383  1  101.623733  1  267.405122  1   7  6  5    0.2719     300AL*
   C    1.505199  1  113.669140  1  180.674799  1  11  7  6   -0.0740     300AM*
   H    1.119987  1  107.704880  1   58.960937  1  11  7  6    0.1513     300AN*
   H    1.118632  1  108.828485  1  301.196039  1  11  7  6    0.1458     300AO*
   C    1.332240  1  124.651165  1  247.130845  1  13 11  7   -0.3915     300AP*
   H    1.097330  1  114.106468  1   67.305111  1  13 11  7    0.1571     300AQ*
   H    1.087662  1  123.107097  1    1.113440  1  16 13 11    0.1564     300AR*
   H    1.088037  1  121.790350  1  180.778698  1  16 13 11    0.1539     300AS*
   O    1.706679  1  153.767203  1  238.651256  1  12  7  6   -0.5328     300AT*
   C    1.222419  1  115.801211  1  277.004528  1  20 12  7    0.5826     300AU*
   C    1.473208  1  119.166957  1  151.222424  1  21 20 12   -0.3957     300AV*
   C    1.343606  1  121.561654  1  186.905130  1  22 21 20    0.0329     300AW*
   C    1.457096  1  121.249515  1  357.852688  1  23 22 21   -0.2730     300AX*
   C    1.344205  1  121.035648  1  358.243162  1  24 23 22   -0.0314     300AY*
   C    1.525542  1  122.164182  1  334.400180  1  21 20 12   -0.2918     300B@*
   H    1.089997  1  115.062501  1    5.826703  1  22 21 20    0.1890     300BA*
   H    1.092600  1  121.594008  1  178.453677  1  23 22 21    0.1393     300BB*
   H    1.089391  1  117.170864  1  179.147097  1  24 23 22    0.1628     300BC*
   H    1.092720  1  121.751462  1  181.379991  1  25 24 23    0.1465     300BD*
   C    1.549071  1  113.738455  1  304.584610  1  26 21 20   -0.2541     300BE*
   H    1.148559  1  104.411119  1   61.929852  1  26 21 20    0.2358     300BF*
   C    1.502162  1  113.629938  1  353.728657  1  31 26 21   -0.0968     300BG*
   H    1.119833  1  109.323765  1  233.638694  1  31 26 21    0.1495     300BH*
   H    1.119813  1  108.222054  1  116.679589  1  31 26 21    0.1590     300BI*
   C    1.331929  1  123.983195  1  116.822845  1  33 31 26   -0.3472     300BJ*
   H    1.092710  1  114.396464  1  296.709792  1  33 31 26    0.1370     300BK*
   H    1.088352  1  122.949665  1  358.502880  1  36 33 31    0.1542     300BL*
   H    1.088391  1  121.879738  1  179.613180  1  36 33 31    0.1530     300BM*
   H    1.091623  1  121.773055  1  176.360920  1   6  5  4    0.1440     300BN*


     POINT   POTENTIAL  +  ENERGY LOST   =   TOTAL      ERROR    REF%   MOVEMENT
     301       2.16183     15.73531         17.89714  -0.34112   301   %  4.1753
     302       2.13148     15.76576         17.89724  -0.34102   302   %  4.1996
     303       2.08997     15.80750         17.89746  -0.34080   303   %  4.2331
     304       2.05142     15.84626         17.89768  -0.34058   304   %  4.2647
     305       2.01546     15.88245         17.89791  -0.34035   305   %  4.2944
     306       1.98228     15.91601         17.89830  -0.33996   306   %  4.3226
     307       1.95898     15.94008         17.89905  -0.33921   307   %  4.3418
     308       1.94685     15.95261         17.89945  -0.33881   308   %  4.3524
     309       1.93847     15.96099         17.89946  -0.33880   309   %  4.3594
     310       1.92670     15.97276         17.89947  -0.33879   310   %  4.3695
     311       1.91018     15.98931         17.89949  -0.33877   311   %  4.3837
     312       1.88704     16.01250         17.89954  -0.33872   312   %  4.4037
     313       1.85479     16.04489         17.89967  -0.33859   313   %  4.4320
     314       1.81588     16.08402         17.89989  -0.33836   314   %  4.4664
     315       1.77970     16.12043         17.90013  -0.33812   315   %  4.4990
     316       1.74744     16.15313         17.90057  -0.33769   316   %  4.5280
     317       1.72605     16.17559         17.90164  -0.33662   317   %  4.5486
     318       1.71645     16.18567         17.90212  -0.33614   318   %  4.5566
     319       1.71053     16.19159         17.90212  -0.33614   319   %  4.5621
     320       1.70219     16.19993         17.90212  -0.33614   320   %  4.5698
     321       1.69046     16.21166         17.90212  -0.33614   321   %  4.5807
     322       1.67400     16.22814         17.90214  -0.33612   322   %  4.5961
     323       1.65098     16.25122         17.90220  -0.33606   323   %  4.6178
     324       1.61891     16.28343         17.90234  -0.33592   324   %  4.6483
     325       1.58166     16.32090         17.90256  -0.33570   325   %  4.6842
     326       1.54688     16.35589         17.90277  -0.33549   326   %  4.7183
     327       1.51359     16.38938         17.90298  -0.33528   327   %  4.7512
     328       1.48163     16.42171         17.90335  -0.33491   328   %  4.7837
     329       1.45899     16.44569         17.90468  -0.33358   329   %  4.8063
     330       1.44961     16.45607         17.90568  -0.33258   330   %  4.8160
     331       1.44565     16.46004         17.90569  -0.33257   331   %  4.8199
     332       1.44011     16.46558         17.90569  -0.33257   332   %  4.8256
     333       1.43232     16.47337         17.90569  -0.33257   333   %  4.8336
     334       1.42136     16.48433         17.90569  -0.33257   334   %  4.8449
     335       1.40599     16.49972         17.90571  -0.33255   335   %  4.8608
     336       1.38449     16.52128         17.90576  -0.33250   336   %  4.8833
     337       1.35456     16.55134         17.90590  -0.33236   337   %  4.9149
     338       1.31878     16.58734         17.90613  -0.33213   338   %  4.9533
     339       1.28628     16.62020         17.90648  -0.33178   339   %  4.9885
     340       1.26305     16.64509         17.90814  -0.33012   340   %  5.0158
     341       1.25410     16.65564         17.90974  -0.32852   341   %  5.0240
     342       1.25113     16.65862         17.90976  -0.32850   342   %  5.0273
     343       1.24704     16.66273         17.90977  -0.32849   343   %  5.0319
     344       1.24130     16.66846         17.90976  -0.32850   344   %  5.0383
     345       1.23322     16.67654         17.90976  -0.32850   345   %  5.0473
     346       1.22187     16.68789         17.90976  -0.32850   346   %  5.0601
     347       1.20597     16.70382         17.90978  -0.32847   347   %  5.0781
     348       1.18375     16.72610         17.90985  -0.32841   348   %  5.1034
     349       1.15289     16.75712         17.91001  -0.32825   349   %  5.1390
     350       1.11902     16.79121         17.91024  -0.32802   350   %  5.1786
     351       1.08818     16.82245         17.91064  -0.32762   351   %  5.2157
     352       1.06799     16.84501         17.91300  -0.32526   352   %  5.2403
     353       1.06062     16.85417         17.91479  -0.32347   353   %  5.2486
     354       1.05856     16.85623         17.91479  -0.32347   354   %  5.2510
     355       1.05567     16.85911         17.91479  -0.32347   355   %  5.2545
     356       1.05162     16.86316         17.91478  -0.32348   356   %  5.2593
     357       1.04591     16.86886         17.91476  -0.32350   357   %  5.2663
     358       1.03786     16.87690         17.91476  -0.32350   358   %  5.2761
     359       1.02656     16.88820         17.91476  -0.32350   359   %  5.2900
     360       1.01074     16.90405         17.91479  -0.32347   360   %  5.3096
     361       0.98866     16.92620         17.91486  -0.32340   361   %  5.3371
     362       0.95803     16.95700         17.91503  -0.32323   362   %  5.3759
     363       0.92585     16.98945         17.91530  -0.32296   363   %  5.4170
     364       0.89963     17.01715         17.91677  -0.32149   364   %  5.4532
     365       0.89017     17.03082         17.92098  -0.31727   365   %  5.4645
     366       0.88718     17.03407         17.92125  -0.31701   366   %  5.4677
     367       0.88512     17.03618         17.92130  -0.31696   367   %  5.4703
     368       0.88244     17.03890         17.92134  -0.31692   368   %  5.4738
     369       0.87877     17.04258         17.92134  -0.31691   369   %  5.4787
     370       0.87362     17.04772         17.92134  -0.31692   370   %  5.4856
     371       0.86638     17.05496         17.92133  -0.31693   371   %  5.4952
     372       0.85620     17.06513         17.92133  -0.31693   372   %  5.5088
     373       0.84194     17.07941         17.92135  -0.31691   373   %  5.5280
     374       0.82204     17.09936         17.92141  -0.31685   374   %  5.5550
     375       0.79445     17.12713         17.92158  -0.31668   375   %  5.5928
     376       0.76667     17.15634         17.92301  -0.31525   376   %  5.6336
     377       0.75763     17.17161         17.92924  -0.30902   377   %  5.6467
     378       0.75407     17.17568         17.92975  -0.30851   378   %  5.6498
     379       0.75257     17.17724         17.92981  -0.30845   379   %  5.6516
     380       0.75071     17.17915         17.92986  -0.30840   380   %  5.6541
     381       0.74829     17.18161         17.92990  -0.30836   381   %  5.6575
     382       0.74499     17.18491         17.92990  -0.30836   382   %  5.6622
     383       0.74038     17.18952         17.92989  -0.30836   383   %  5.6688
     384       0.73388     17.19601         17.92989  -0.30837   384   %  5.6781
     385       0.72474     17.20514         17.92988  -0.30838   385   %  5.6911
     386       0.71194     17.21796         17.92989  -0.30836   386   %  5.7096
     387       0.69406     17.23588         17.92994  -0.30832   387   %  5.7356
     388       0.66924     17.26085         17.93009  -0.30817   388   %  5.7720
     389       0.64295     17.28901         17.93196  -0.30630   389   %  5.8140
     390       0.63559     17.30409         17.93968  -0.29858   390   %  5.8254
     391       0.63246     17.30764         17.94010  -0.29816   391   %  5.8280
     392       0.63102     17.30915         17.94017  -0.29809   392   %  5.8296
     393       0.62932     17.31092         17.94024  -0.29802   393   %  5.8319
     394       0.62723     17.31307         17.94030  -0.29796   394   %  5.8349
     395       0.62446     17.31586         17.94032  -0.29794   395   %  5.8392
     396       0.62060     17.31971         17.94031  -0.29795   396   %  5.8451
     397       0.61518     17.32511         17.94029  -0.29797   397   %  5.8533
     398       0.60755     17.33274         17.94029  -0.29797   398   %  5.8650
     399       0.59684     17.34345         17.94029  -0.29797   399   %  5.8814
     400       0.58186     17.35845         17.94031  -0.29795   400   %  5.9047


          FINAL GEOMETRY OBTAINED                                 CHARGE
 PM6-D3H4 CHARGE=0 IRC=-1 LARGE=100 LET CYCLES=10000
 (irc)

   O    0.000000  0    0.000000  0    0.000000  0   0  0  0   -0.5474     400AA*
   C    1.221049  1    0.000000  0    0.000000  0   1  0  0    0.5791     400AB*
   C    1.477279  1  120.406261  1    0.000000  0   2  1  0   -0.4147     400AC*
   C    1.345655  1  121.766360  1  181.596821  1   3  2  1    0.0403     400AD*
   C    1.455724  1  121.197686  1    2.176095  1   4  3  2   -0.2900     400AE*
   C    1.346549  1  120.728795  1  356.754238  1   5  4  3   -0.0104     400AF*
   C    1.493305  1  122.412590  1  353.766656  1   6  5  4   -0.3147     400AG*
   H    1.089265  1  115.143699  1    0.800909  1   3  2  1    0.1874     400AH*
   H    1.092638  1  121.582815  1  180.861336  1   4  3  2    0.1377     400AI*
   H    1.088725  1  117.391501  1  175.289669  1   5  4  3    0.1640     400AJ*
   C    1.541067  1  112.331214  1  149.207357  1   7  6  5   -0.2499     400AK*
   H    1.163270  1  103.134901  1  264.143059  1   7  6  5    0.2608     400AL*
   C    1.504890  1  113.314555  1  179.209877  1  11  7  6   -0.0741     400AM*
   H    1.119511  1  107.896118  1   57.546059  1  11  7  6    0.1507     400AN*
   H    1.118556  1  108.798824  1  299.732798  1  11  7  6    0.1464     400AO*
   C    1.332038  1  124.470638  1  250.478690  1  13 11  7   -0.3907     400AP*
   H    1.097240  1  114.158824  1   70.409056  1  13 11  7    0.1575     400AQ*
   H    1.087803  1  123.058003  1    0.957436  1  16 13 11    0.1567     400AR*
   H    1.087999  1  121.837316  1  180.605631  1  16 13 11    0.1539     400AS*
   O    1.782682  1  157.408969  1  239.965719  1  12  7  6   -0.5301     400AT*
   C    1.221030  1  114.608265  1  278.296429  1  20 12  7    0.5801     400AU*
   C    1.475114  1  119.826803  1  148.857142  1  21 20 12   -0.3944     400AV*
   C    1.343792  1  121.726505  1  185.381475  1  22 21 20    0.0304     400AW*
   C    1.457437  1  121.225044  1  358.247828  1  23 22 21   -0.2699     400AX*
   C    1.344057  1  121.006830  1  359.086348  1  24 23 22   -0.0351     400AY*
   C    1.527345  1  121.658908  1  331.987640  1  21 20 12   -0.2865     400B@*
   H    1.090001  1  115.006379  1    4.546040  1  22 21 20    0.1884     400BA*
   H    1.092585  1  121.627619  1  178.722637  1  23 22 21    0.1394     400BB*
   H    1.089433  1  117.191843  1  179.715753  1  24 23 22    0.1626     400BC*
   H    1.092764  1  121.696391  1  180.813818  1  25 24 23    0.1465     400BD*
   C    1.549632  1  113.597731  1  305.359193  1  26 21 20   -0.2562     400BE*
   H    1.146015  1  104.541553  1   62.511279  1  26 21 20    0.2281     400BF*
   C    1.502344  1  113.925723  1  355.673595  1  31 26 21   -0.0922     400BG*
   H    1.120080  1  109.310353  1  235.622036  1  31 26 21    0.1497     400BH*
   H    1.119746  1  108.114397  1  118.671425  1  31 26 21    0.1578     400BI*
   C    1.331970  1  123.915734  1  118.050193  1  33 31 26   -0.3497     400BJ*
   H    1.092693  1  114.458622  1  297.696671  1  33 31 26    0.1370     400BK*
   H    1.088303  1  122.959844  1  358.169262  1  36 33 31    0.1538     400BL*
   H    1.088359  1  121.861277  1  179.347062  1  36 33 31    0.1532     400BM*
   H    1.091792  1  121.682408  1  177.664564  1   6  5  4    0.1444     400BN*


     POINT   POTENTIAL  +  ENERGY LOST   =   TOTAL      ERROR    REF%   MOVEMENT
     401       0.56102     17.37938         17.94040  -0.29786   401   %  5.9372
     402       0.53290     17.40863         17.94153  -0.29673   402   %  5.9838
     403       0.52562     17.42594         17.95155  -0.28671   403   %  6.0004
     404       0.51990     17.43306         17.95296  -0.28530   404   %  6.0039
     405       0.51884     17.43416         17.95301  -0.28525   405   %  6.0050
     406       0.51758     17.43548         17.95307  -0.28519   406   %  6.0066
     407       0.51608     17.43705         17.95313  -0.28513   407   %  6.0088
     408       0.51420     17.43897         17.95317  -0.28509   408   %  6.0118
     409       0.51170     17.44148         17.95318  -0.28508   409   %  6.0159
     410       0.50821     17.44497         17.95317  -0.28508   410   %  6.0216
     411       0.50330     17.44986         17.95316  -0.28510   411   %  6.0296
     412       0.49638     17.45677         17.95315  -0.28511   412   %  6.0409
     413       0.48667     17.46648         17.95315  -0.28511   413   %  6.0568
     414       0.47308     17.48008         17.95316  -0.28509   414   %  6.0792
     415       0.45416     17.49908         17.95324  -0.28502   415   %  6.1107
     416       0.42878     17.52569         17.95447  -0.28379   416   %  6.1558
     417       0.42319     17.54208         17.96527  -0.27299   417   %  6.1710
     418       0.41770     17.54887         17.96657  -0.27169   418   %  6.1742
     419       0.41664     17.54998         17.96662  -0.27163   419   %  6.1753
     420       0.41542     17.55127         17.96669  -0.27157   420   %  6.1768
     421       0.41401     17.55275         17.96677  -0.27149   421   %  6.1788
     422       0.41232     17.55450         17.96682  -0.27144   422   %  6.1817
     423       0.41011     17.55672         17.96684  -0.27142   423   %  6.1855
     424       0.40705     17.55978         17.96683  -0.27143   424   %  6.1908
     425       0.40275     17.56406         17.96681  -0.27144   425   %  6.1982
     426       0.39669     17.57012         17.96680  -0.27145   426   %  6.2087
     427       0.38817     17.57863         17.96680  -0.27146   427   %  6.2235
     428       0.37624     17.59057         17.96681  -0.27145   428   %  6.2444
     429       0.35960     17.60726         17.96686  -0.27140   429   %  6.2737
     430       0.33696     17.63060         17.96756  -0.27070   430   %  6.3156
     431       0.33037     17.64691         17.97728  -0.26098   431   %  6.3352
     432       0.32341     17.65644         17.97985  -0.25841   432   %  6.3394
     433       0.32270     17.65717         17.97987  -0.25839   433   %  6.3404
     434       0.32182     17.65808         17.97990  -0.25836   434   %  6.3417
     435       0.32071     17.65922         17.97993  -0.25833   435   %  6.3436
     436       0.31929     17.66066         17.97995  -0.25830   436   %  6.3461
     437       0.31737     17.66259         17.97996  -0.25830   437   %  6.3497
     438       0.31470     17.66526         17.97995  -0.25831   438   %  6.3546
     439       0.31092     17.66901         17.97994  -0.25832   439   %  6.3615
     440       0.30561     17.67432         17.97993  -0.25833   440   %  6.3712
     441       0.29813     17.68178         17.97992  -0.25834   441   %  6.3849
     442       0.28766     17.69226         17.97992  -0.25834   442   %  6.4043
     443       0.27303     17.70692         17.97994  -0.25832   443   %  6.4316
     444       0.25273     17.72735         17.98008  -0.25818   444   %  6.4702
     445       0.23263     17.75207         17.98470  -0.25356   445   %  6.5137
     446       0.22830     17.77176         18.00006  -0.23820   446   %  6.5260
     447       0.22604     17.77424         18.00028  -0.23798   447   %  6.5267
     448       0.22458     17.77581         18.00040  -0.23786   448   %  6.5274
     449       0.22319     17.77733         18.00052  -0.23774   449   %  6.5285
     450       0.22188     17.77874         18.00062  -0.23764   450   %  6.5299
     451       0.22043     17.78026         18.00069  -0.23757   451   %  6.5321
     452       0.21864     17.78208         18.00072  -0.23754   452   %  6.5353
     453       0.21618     17.78453         18.00071  -0.23754   453   %  6.5400
     454       0.21273     17.78796         18.00070  -0.23756   454   %  6.5467
     455       0.20788     17.79280         18.00068  -0.23758   455   %  6.5561
     456       0.20104     17.79963         18.00067  -0.23759   456   %  6.5695
     457       0.19144     17.80922         18.00066  -0.23760   457   %  6.5884
     458       0.17804     17.82265         18.00069  -0.23757   458   %  6.6150
     459       0.15982     17.84151         18.00132  -0.23694   459   %  6.6518
     460       0.15546     17.85602         18.01147  -0.22679   460   %  6.6751
     461       0.14834     17.86603         18.01437  -0.22389   461   %  6.6767
     462       0.14775     17.86664         18.01439  -0.22387   462   %  6.6773
     463       0.14702     17.86740         18.01442  -0.22384   463   %  6.6782
     464       0.14612     17.86832         18.01445  -0.22381   464   %  6.6796
     465       0.14499     17.86948         18.01447  -0.22379   465   %  6.6816
     466       0.14347     17.87101         18.01447  -0.22378   466   %  6.6845
     467       0.14136     17.87311         18.01447  -0.22379   467   %  6.6888
     468       0.13839     17.87606         18.01445  -0.22381   468   %  6.6948
     469       0.13421     17.88022         18.01443  -0.22383   469   %  6.7033
     470       0.12832     17.88610         18.01442  -0.22384   470   %  6.7154
     471       0.12005     17.89436         18.01441  -0.22385   471   %  6.7324
     472       0.10847     17.90595         18.01442  -0.22384   472   %  6.7565
     473       0.09234     17.92213         18.01446  -0.22379   473   %  6.7901
     474       0.07017     17.94468         18.01485  -0.22341   474   %  6.8385
     475       0.06111     17.96334         18.02445  -0.21381   475   %  6.8669
     476       0.05203     17.97931         18.03134  -0.20692   476   %  6.8761
     477       0.05161     17.97973         18.03134  -0.20692   477   %  6.8770
     478       0.05104     17.98030         18.03134  -0.20692   478   %  6.8782
     479       0.05026     17.98109         18.03134  -0.20691   479   %  6.8798
     480       0.04917     17.98217         18.03134  -0.20692   480   %  6.8822
     481       0.04765     17.98368         18.03134  -0.20692   481   %  6.8855
     482       0.04551     17.98581         18.03132  -0.20693   482   %  6.8902
     483       0.04250     17.98881         18.03131  -0.20695   483   %  6.8967
     484       0.03825     17.99303         18.03129  -0.20697   484   %  6.9059
     485       0.03227     17.99900         18.03127  -0.20699   485   %  6.9190
     486       0.02387     18.00740         18.03127  -0.20699   486   %  6.9374
     487       0.01212     18.01916         18.03128  -0.20698   487   %  6.9634
     488      -0.00415     18.03561         18.03147  -0.20679   488   %  6.9994
     489      -0.01388     18.05410         18.04022  -0.19804   489   %  7.0403
     490      -0.02216     18.07544         18.05328  -0.18498   490   %  7.0418
     491      -0.02279     18.07610         18.05331  -0.18495   491   %  7.0426
     492      -0.02353     18.07688         18.05335  -0.18491   492   %  7.0437
     493      -0.02436     18.07776         18.05340  -0.18486   493   %  7.0452
     494      -0.02534     18.07877         18.05343  -0.18483   494   %  7.0473
     495      -0.02659     18.08003         18.05345  -0.18481   495   %  7.0501
     496      -0.02829     18.08174         18.05344  -0.18481   496   %  7.0540
     497      -0.03069     18.08412         18.05343  -0.18483   497   %  7.0595
     498      -0.03407     18.08748         18.05341  -0.18485   498   %  7.0671
     499      -0.03883     18.09223         18.05340  -0.18486   499   %  7.0780
     500      -0.04553     18.09892         18.05339  -0.18487   500   %  7.0934


          FINAL GEOMETRY OBTAINED                                 CHARGE
 PM6-D3H4 CHARGE=0 IRC=-1 LARGE=100 LET CYCLES=10000
 (irc)

   O    0.000000  0    0.000000  0    0.000000  0   0  0  0   -0.5443     500AA*
   C    1.220386  1    0.000000  0    0.000000  0   1  0  0    0.5776     500AB*
   C    1.477704  1  120.480051  1    0.000000  0   2  1  0   -0.4131     500AC*
   C    1.345362  1  121.758666  1  183.292647  1   3  2  1    0.0391     500AD*
   C    1.456155  1  121.170355  1    1.354208  1   4  3  2   -0.2867     500AE*
   C    1.346079  1  120.772473  1  356.539070  1   5  4  3   -0.0138     500AF*
   C    1.494437  1  122.598641  1  354.963819  1   6  5  4   -0.3086     500AG*
   H    1.089265  1  115.126950  1    2.227338  1   3  2  1    0.1873     500AH*
   H    1.092606  1  121.618758  1  180.326844  1   4  3  2    0.1379     500AI*
   H    1.088843  1  117.363573  1  175.468769  1   5  4  3    0.1638     500AJ*
   C    1.541736  1  111.933111  1  146.453478  1   7  6  5   -0.2512     500AK*
   H    1.159695  1  103.864971  1  261.856771  1   7  6  5    0.2559     500AL*
   C    1.504793  1  113.016537  1  177.752203  1  11  7  6   -0.0740     500AM*
   H    1.119196  1  108.053203  1   56.153247  1  11  7  6    0.1504     500AN*
   H    1.118433  1  108.780838  1  298.293701  1  11  7  6    0.1466     500AO*
   C    1.331944  1  124.342995  1  252.908420  1  13 11  7   -0.3903     500AP*
   H    1.097041  1  114.190407  1   72.606999  1  13 11  7    0.1571     500AQ*
   H    1.087974  1  123.011933  1    0.820671  1  16 13 11    0.1573     500AR*
   H    1.087989  1  121.878021  1  180.441385  1  16 13 11    0.1540     500AS*
   O    1.826097  1  159.396242  1  240.401870  1  12  7  6   -0.5288     500AT*
   C    1.220384  1  114.226663  1  278.775171  1  20 12  7    0.5791     500AU*
   C    1.475987  1  120.112304  1  148.197718  1  21 20 12   -0.3939     500AV*
   C    1.343866  1  121.789341  1  184.987843  1  22 21 20    0.0292     500AW*
   C    1.457608  1  121.222302  1  358.446298  1  23 22 21   -0.2686     500AX*
   C    1.343983  1  120.986504  1  359.276318  1  24 23 22   -0.0368     500AY*
   C    1.527997  1  121.453696  1  331.286084  1  21 20 12   -0.2845     500B@*
   H    1.089989  1  114.987126  1    4.240459  1  22 21 20    0.1882     500BA*
   H    1.092581  1  121.639107  1  178.851485  1  23 22 21    0.1395     500BB*
   H    1.089439  1  117.202711  1  179.791001  1  24 23 22    0.1625     500BC*
   H    1.092780  1  121.687969  1  180.600774  1  25 24 23    0.1465     500BD*
   C    1.549840  1  113.554705  1  305.244983  1  26 21 20   -0.2571     500BE*
   H    1.144945  1  104.573301  1   62.333751  1  26 21 20    0.2252     500BF*
   C    1.502403  1  114.079352  1  357.244712  1  31 26 21   -0.0898     500BG*
   H    1.120236  1  109.290715  1  237.234210  1  31 26 21    0.1499     500BH*
   H    1.119767  1  108.042679  1  120.279510  1  31 26 21    0.1575     500BI*
   C    1.331974  1  123.890905  1  118.868527  1  33 31 26   -0.3517     500BJ*
   H    1.092733  1  114.495025  1  298.357853  1  33 31 26    0.1371     500BK*
   H    1.088278  1  122.972067  1  358.003616  1  36 33 31    0.1538     500BL*
   H    1.088361  1  121.849112  1  179.186696  1  36 33 31    0.1534     500BM*
   H    1.091904  1  121.637330  1  178.370868  1   6  5  4    0.1446     500BN*


     POINT   POTENTIAL  +  ENERGY LOST   =   TOTAL      ERROR    REF%   MOVEMENT
     501      -0.05493     18.10831         18.05338  -0.18488   501   %  7.1151
     502      -0.06805     18.12145         18.05341  -0.18485   502   %  7.1455
     503      -0.08604     18.13985         18.05381  -0.18445   503   %  7.1891
     504      -0.09051     18.15603         18.06552  -0.17274   504   %  7.2158
     505      -0.10040     18.17241         18.07201  -0.16625   505   %  7.2216
     506      -0.10074     18.17275         18.07201  -0.16625   506   %  7.2224
     507      -0.10119     18.17320         18.07201  -0.16625   507   %  7.2235
     508      -0.10180     18.17382         18.07201  -0.16625   508   %  7.2250
     509      -0.10264     18.17465         18.07201  -0.16625   509   %  7.2271
     510      -0.10379     18.17580         18.07201  -0.16625   510   %  7.2299
     511      -0.10540     18.17740         18.07200  -0.16626   511   %  7.2338
     512      -0.10767     18.17966         18.07199  -0.16627   512   %  7.2392
     513      -0.11086     18.18283         18.07197  -0.16629   513   %  7.2468
     514      -0.11537     18.18733         18.07196  -0.16630   514   %  7.2577
     515      -0.12171     18.19365         18.07194  -0.16632   515   %  7.2729
     516      -0.13060     18.20254         18.07194  -0.16632   516   %  7.2945
     517      -0.14301     18.21498         18.07197  -0.16629   517   %  7.3247
     518      -0.15956     18.23255         18.07300  -0.16526   518   %  7.3688
     519      -0.16014     18.24643         18.08629  -0.15197   519   %  7.3822
     520      -0.16683     18.25505         18.08822  -0.15004   520   %  7.3862
     521      -0.16768     18.25595         18.08827  -0.14999   521   %  7.3873
     522      -0.16863     18.25695         18.08833  -0.14993   522   %  7.3887
     523      -0.16963     18.25803         18.08840  -0.14986   523   %  7.3905
     524      -0.17071     18.25918         18.08847  -0.14979   524   %  7.3930
     525      -0.17197     18.26047         18.08850  -0.14976   525   %  7.3962
     526      -0.17362     18.26213         18.08850  -0.14975   526   %  7.4004
     527      -0.17595     18.26444         18.08849  -0.14976   527   %  7.4063
     528      -0.17921     18.26768         18.08847  -0.14979   528   %  7.4144
     529      -0.18382     18.27228         18.08846  -0.14980   529   %  7.4260
[...]
    6696      -4.39301     32.02452         27.63151   9.39325  6696   % 24.9795
    6697      -4.39324     32.02483         27.63159   9.39333  6697   % 24.9797
    6698      -4.39332     32.02494         27.63162   9.39336  6698   % 24.9800
    6699      -4.39334     32.02496         27.63162   9.39336  6699   % 24.9801
    6700      -4.39336     32.02498         27.63162   9.39336  6700   % 24.9803


          FINAL GEOMETRY OBTAINED                                 CHARGE
 PM6-D3H4 CHARGE=0 IRC=-1 LARGE=100 LET CYCLES=10000
 (irc)

   O    0.000000  0    0.000000  0    0.000000  0   0  0  0   -0.5358    6700AA*
   C    1.219241  1    0.000000  0    0.000000  0   1  0  0    0.5778    6700AB*
   C    1.478036  1  120.983459  1    0.000000  0   2  1  0   -0.3915    6700AC*
   C    1.344265  1  121.733772  1  174.198311  1   3  2  1    0.0248    6700AD*
   C    1.458207  1  121.259658  1    0.930044  1   4  3  2   -0.2697    6700AE*
   C    1.344211  1  120.955957  1    2.474974  1   5  4  3   -0.0348    6700AF*
   C    1.497364  1  123.235953  1  358.376007  1   6  5  4   -0.2873    6700AG*
   H    1.089462  1  115.063826  1  355.015075  1   3  2  1    0.1864    6700AH*
   H    1.092442  1  121.650462  1  180.787216  1   4  3  2    0.1386    6700AI*
   H    1.089238  1  117.206422  1  182.164479  1   5  4  3    0.1616    6700AJ*
   C    1.546571  1  110.478217  1  123.404401  1   7  6  5   -0.2516    6700AK*
   H    1.143361  1  106.673587  1  240.186753  1   7  6  5    0.2310    6700AL*
   C    1.504003  1  111.336293  1  168.916931  1  11  7  6   -0.0850    6700AM*
   H    1.118034  1  108.534021  1   47.660646  1  11  7  6    0.1514    6700AN*
   H    1.117648  1  109.028549  1  289.637090  1  11  7  6    0.1469    6700AO*
   C    1.331575  1  123.830847  1  255.293978  1  13 11  7   -0.3725    6700AP*
   H    1.095372  1  114.387527  1   74.015147  1  13 11  7    0.1520    6700AQ*
   H    1.088405  1  122.900799  1    0.544487  1  16 13 11    0.1580    6700AR*
   H    1.088181  1  121.979520  1  179.623220  1  16 13 11    0.1533    6700AS*
   O    2.044164  1  162.477551  1  246.502945  1  12  7  6   -0.5350    6700AT*
   C    1.219298  1  112.977921  1  273.842471  1  20 12  7    0.5772    6700AU*
   C    1.477695  1  121.078114  1  147.007142  1  21 20 12   -0.3939    6700AV*
   C    1.344338  1  121.686088  1  187.082073  1  22 21 20    0.0266    6700AW*
   C    1.458358  1  121.272230  1  359.341696  1  23 22 21   -0.2696    6700AX*
   C    1.344145  1  120.918837  1  356.738681  1  24 23 22   -0.0349    6700AY*
   C    1.527783  1  120.818118  1  327.700126  1  21 20 12   -0.2877    6700B@*
   H    1.089560  1  115.121723  1    6.255625  1  22 21 20    0.1870    6700BA*
   H    1.092500  1  121.647036  1  179.318094  1  23 22 21    0.1388    6700BB*
   H    1.089255  1  117.219759  1  176.858152  1  24 23 22    0.1619    6700BC*
   H    1.092395  1  121.768921  1  180.397812  1  25 24 23    0.1465    6700BD*
   C    1.547218  1  110.765828  1  296.224153  1  26 21 20   -0.2513    6700BE*
   H    1.142012  1  106.653408  1   53.419971  1  26 21 20    0.2295    6700BF*
   C    1.503028  1  111.991093  1   60.909058  1  31 26 21   -0.0898    6700BG*
   H    1.118390  1  108.929443  1  300.342555  1  31 26 21    0.1483    6700BH*
   H    1.118317  1  108.242031  1  182.480876  1  31 26 21    0.1526    6700BI*
   C    1.331517  1  123.935511  1  113.621140  1  33 31 26   -0.3706    6700BJ*
   H    1.096178  1  114.424527  1  294.191911  1  33 31 26    0.1544    6700BK*
   H    1.087952  1  123.024592  1  359.150541  1  36 33 31    0.1562    6700BL*
   H    1.088525  1  121.873349  1  179.920576  1  36 33 31    0.1541    6700BM*
   H    1.092406  1  121.712911  1  179.371486  1   6  5  4    0.1458    6700BN*


     POINT   POTENTIAL  +  ENERGY LOST   =   TOTAL      ERROR    REF%   MOVEMENT
    6701      -4.39339     32.02502         27.63162   9.39336  6701   % 24.9806
    6702      -4.39343     32.02506         27.63163   9.39337  6702   % 24.9809
    6703      -4.39350     32.02512         27.63163   9.39337  6703   % 24.9815
    6704      -4.39358     32.02522         27.63164   9.39338  6704   % 24.9822
    6705      -4.39343     32.02543         27.63200   9.39374  6705   % 24.9836
    6706      -4.38566     32.02911         27.64346   9.40520  6706   % 24.9823
    6707      -4.39359     32.04269         27.64910   9.41084  6707   % 24.9839
    6708      -4.39366     32.04276         27.64911   9.41085  6708   % 24.9839
    6709      -4.39372     32.04283         27.64911   9.41085  6709   % 24.9840
    6710      -4.39377     32.04289         27.64912   9.41086  6710   % 24.9841
    6711      -4.39381     32.04294         27.64913   9.41087  6711   % 24.9842
    6712      -4.39383     32.04296         27.64913   9.41087  6712   % 24.9844
    6713      -4.39385     32.04298         27.64913   9.41087  6713   % 24.9845
    6714      -4.39387     32.04300         27.64913   9.41087  6714   % 24.9847
    6715      -4.39389     32.04302         27.64913   9.41087  6715   % 24.9849
    6716      -4.39393     32.04306         27.64913   9.41087  6716   % 24.9852
    6717      -4.39398     32.04312         27.64914   9.41088  6717   % 24.9856
    6718      -4.39405     32.04319         27.64914   9.41088  6718   % 24.9863
    6719      -4.39415     32.04330         27.64915   9.41090  6719   % 24.9871
    6720      -4.39366     32.04361         27.64995   9.41169  6720   % 24.9888
    6721      -4.38349     32.05034         27.66685   9.42859  6721   % 24.9870
    6722      -4.39217     32.06227         27.67010   9.43184  6722   % 24.9881
    6723      -4.39273     32.06287         27.67013   9.43188  6723   % 24.9883
    6724      -4.39331     32.06350         27.67019   9.43193  6724   % 24.9885
    6725      -4.39381     32.06408         27.67026   9.43200  6725   % 24.9887
    6726      -4.39417     32.06451         27.67034   9.43208  6726   % 24.9889
    6727      -4.39435     32.06475         27.67040   9.43214  6727   % 24.9891
    6728      -4.39441     32.06483         27.67042   9.43216  6728   % 24.9893
    6729      -4.39443     32.06485         27.67042   9.43216  6729   % 24.9895
    6730      -4.39445     32.06488         27.67042   9.43216  6730   % 24.9897
    6731      -4.39448     32.06491         27.67042   9.43217  6731   % 24.9899
    6732      -4.39453     32.06495         27.67043   9.43217  6732   % 24.9903
    6733      -4.39459     32.06502         27.67043   9.43217  6733   % 24.9909
    6734      -4.39466     32.06512         27.67045   9.43219  6734   % 24.9915
    6735      -4.39410     32.06545         27.67135   9.43309  6735   % 24.9932
    6736      -4.38785     32.07141         27.68356   9.44530  6736   % 24.9916
    6737      -4.39329     32.07877         27.68547   9.44721  6737   % 24.9925
    6738      -4.39378     32.07930         27.68551   9.44725  6738   % 24.9926
    6739      -4.39424     32.07981         27.68557   9.44731  6739   % 24.9928
    6740      -4.39460     32.08024         27.68563   9.44738  6740   % 24.9930
    6741      -4.39481     32.08050         27.68569   9.44743  6741   % 24.9932
    6742      -4.39489     32.08061         27.68572   9.44746  6742   % 24.9934
    6743      -4.39491     32.08064         27.68573   9.44747  6743   % 24.9936
    6744      -4.39493     32.08066         27.68573   9.44747  6744   % 24.9938
    6745      -4.39496     32.08069         27.68573   9.44747  6745   % 24.9940
    6746      -4.39500     32.08073         27.68573   9.44747  6746   % 24.9944
    6747      -4.39505     32.08078         27.68573   9.44747  6747   % 24.9948
    6748      -4.39513     32.08086         27.68573   9.44748  6748   % 24.9955
    6749      -4.39522     32.08098         27.68576   9.44750  6749   % 24.9964
    6750      -4.39388     32.08149         27.68761   9.44935  6750   % 24.9986
    6751      -4.38505     32.09258         27.70753   9.46927  6751   % 24.9962
    6752      -4.39119     32.10004         27.70885   9.47059  6752   % 24.9970
    6753      -4.39230     32.10122         27.70893   9.47067  6753   % 24.9972
    6754      -4.39342     32.10246         27.70904   9.47078  6754   % 24.9974
    6755      -4.39434     32.10351         27.70917   9.47091  6755   % 24.9977
    6756      -4.39495     32.10423         27.70928   9.47102  6756   % 24.9980
    6757      -4.39530     32.10467         27.70937   9.47111  6757   % 24.9982
    6758      -4.39545     32.10488         27.70942   9.47117  6758   % 24.9984
    6759      -4.39549     32.10493         27.70944   9.47118  6759   % 24.9986
    6760      -4.39551     32.10495         27.70944   9.47118  6760   % 24.9988
    6761      -4.39553     32.10497         27.70944   9.47118  6761   % 24.9990
    6762      -4.39557     32.10501         27.70944   9.47118  6762   % 24.9993
    6763      -4.39562     32.10506         27.70945   9.47119  6763   % 24.9997
    6764      -4.39569     32.10514         27.70945   9.47119  6764   % 25.0004
    6765      -4.39570     32.10527         27.70958   9.47132  6765   % 25.0010
    6766      -4.39068     32.10691         27.71623   9.47797  6766   % 25.0037
    6767      -4.39437     32.12316         27.72879   9.49053  6767   % 25.0017
    6768      -4.39492     32.12376         27.72884   9.49058  6768   % 25.0019
    6769      -4.39540     32.12431         27.72891   9.49065  6769   % 25.0021
    6770      -4.39574     32.12472         27.72898   9.49072  6770   % 25.0023
    6771      -4.39591     32.12495         27.72904   9.49078  6771   % 25.0025
    6772      -4.39596     32.12502         27.72906   9.49080  6772   % 25.0027
    6773      -4.39598     32.12504         27.72906   9.49080  6773   % 25.0029
    6774      -4.39600     32.12506         27.72906   9.49080  6774   % 25.0031
    6775      -4.39603     32.12509         27.72906   9.49080  6775   % 25.0034
    6776      -4.39608     32.12514         27.72906   9.49080  6776   % 25.0037
    6777      -4.39614     32.12520         27.72906   9.49081  6777   % 25.0043
    6778      -4.39621     32.12530         27.72909   9.49083  6778   % 25.0049
    6779      -4.39546     32.12569         27.73024   9.49198  6779   % 25.0067
    6780      -4.38977     32.13246         27.74269   9.50443  6780   % 25.0050
    6781      -4.39452     32.13863         27.74411   9.50585  6781   % 25.0058
    6782      -4.39512     32.13928         27.74416   9.50590  6782   % 25.0059
    6783      -4.39568     32.13991         27.74423   9.50597  6783   % 25.0061
    6784      -4.39611     32.14042         27.74431   9.50605  6784   % 25.0064
    6785      -4.39634     32.14072         27.74438   9.50612  6785   % 25.0066
    6786      -4.39643     32.14084         27.74441   9.50616  6786   % 25.0068
    6787      -4.39645     32.14087         27.74442   9.50616  6787   % 25.0070
    6788      -4.39647     32.14089         27.74442   9.50616  6788   % 25.0071
    6789      -4.39650     32.14092         27.74442   9.50616  6789   % 25.0074
    6790      -4.39654     32.14096         27.74442   9.50616  6790   % 25.0077
    6791      -4.39659     32.14102         27.74443   9.50617  6791   % 25.0082
    6792      -4.39667     32.14110         27.74443   9.50617  6792   % 25.0089
    6793      -4.39678     32.14121         27.74443   9.50617  6793   % 25.0098
    6794      -4.39693     32.14137         27.74444   9.50618  6794   % 25.0111
    6795      -4.39711     32.14160         27.74448   9.50622  6795   % 25.0129
    6796      -4.38211     32.14346         27.76136   9.52310  6796   % 25.0175
    6797      -4.36817     32.21660         27.84843   9.61017  6797   % 25.0143
    6798      -4.37448     32.22328         27.84880   9.61054  6798   % 25.0144
    6799      -4.37816     32.22713         27.84896   9.61071  6799   % 25.0146
    6800      -4.38158     32.23071         27.84913   9.61087  6800   % 25.0147


          FINAL GEOMETRY OBTAINED                                 CHARGE
 PM6-D3H4 CHARGE=0 IRC=-1 LARGE=100 LET CYCLES=10000
 (irc)

   O    0.000000  0    0.000000  0    0.000000  0   0  0  0   -0.5357    6800AA*
   C    1.219249  1    0.000000  0    0.000000  0   1  0  0    0.5778    6800AB*
   C    1.478047  1  120.982550  1    0.000000  0   2  1  0   -0.3915    6800AC*
   C    1.344345  1  121.730981  1  174.198967  1   3  2  1    0.0249    6800AD*
   C    1.458259  1  121.261474  1    0.927868  1   4  3  2   -0.2697    6800AE*
   C    1.344245  1  120.951613  1    2.475572  1   5  4  3   -0.0347    6800AF*
   C    1.497369  1  123.239010  1  358.379527  1   6  5  4   -0.2874    6800AG*
   H    1.088497  1  115.066542  1  355.015554  1   3  2  1    0.1863    6800AH*
   H    1.091699  1  121.649170  1  180.785355  1   4  3  2    0.1385    6800AI*
   H    1.088064  1  117.208274  1  182.166082  1   5  4  3    0.1615    6800AJ*
   C    1.546600  1  110.474778  1  123.402439  1   7  6  5   -0.2515    6800AK*
   H    1.143730  1  106.671772  1  240.187591  1   7  6  5    0.2311    6800AL*
   C    1.504064  1  111.336285  1  168.933497  1  11  7  6   -0.0851    6800AM*
   H    1.117051  1  108.532106  1   47.667889  1  11  7  6    0.1513    6800AN*
   H    1.116590  1  109.027937  1  289.643861  1  11  7  6    0.1469    6800AO*
   C    1.331583  1  123.823838  1  255.181991  1  13 11  7   -0.3724    6800AP*
   H    1.093222  1  114.394948  1   73.911011  1  13 11  7    0.1518    6800AQ*
   H    1.089871  1  122.908838  1    0.548126  1  16 13 11    0.1581    6800AR*
   H    1.089030  1  121.977116  1  179.629217  1  16 13 11    0.1534    6800AS*
   O    2.043360  1  162.454083  1  246.496458  1  12  7  6   -0.5350    6800AT*
   C    1.219310  1  112.949967  1  273.993422  1  20 12  7    0.5772    6800AU*
   C    1.477717  1  121.071024  1  146.788304  1  21 20 12   -0.3938    6800AV*
   C    1.344418  1  121.685692  1  187.012367  1  22 21 20    0.0266    6800AW*
   C    1.458400  1  121.274224  1  359.340207  1  23 22 21   -0.2696    6800AX*
   C    1.344198  1  120.915666  1  356.776008  1  24 23 22   -0.0348    6800AY*
   C    1.527796  1  120.818642  1  327.489581  1  21 20 12   -0.2877    6800B@*
   H    1.088501  1  115.122380  1    6.189583  1  22 21 20    0.1869    6800BA*
   H    1.091782  1  121.645220  1  179.319209  1  23 22 21    0.1388    6800BB*
   H    1.088053  1  117.221638  1  176.897897  1  24 23 22    0.1618    6800BC*
   H    1.092396  1  121.763035  1  180.398021  1  25 24 23    0.1465    6800BD*
   C    1.547237  1  110.768353  1  296.349984  1  26 21 20   -0.2511    6800BE*
   H    1.142000  1  106.646120  1   53.541168  1  26 21 20    0.2296    6800BF*
   C    1.503120  1  111.971451  1   60.994412  1  31 26 21   -0.0901    6800BG*
   H    1.117449  1  108.931174  1  300.436019  1  31 26 21    0.1482    6800BH*
   H    1.117105  1  108.250012  1  182.569899  1  31 26 21    0.1524    6800BI*
   C    1.331351  1  123.923873  1  113.476406  1  33 31 26   -0.3705    6800BJ*
   H    1.093677  1  114.432507  1  294.058172  1  33 31 26    0.1541    6800BK*
   H    1.092123  1  123.032509  1  359.152653  1  36 33 31    0.1565    6800BL*
   H    1.091553  1  121.879598  1  179.924167  1  36 33 31    0.1543    6800BM*
   H    1.092603  1  121.710704  1  179.373033  1   6  5  4    0.1459    6800BN*


     POINT   POTENTIAL  +  ENERGY LOST   =   TOTAL      ERROR    REF%   MOVEMENT
    6801      -4.38464     32.23394         27.84930   9.61104  6801   % 25.0148
    6802      -4.38735     32.23681         27.84946   9.61120  6802   % 25.0150
    6803      -4.38971     32.23933         27.84962   9.61136  6803   % 25.0151
    6804      -4.39174     32.24151         27.84977   9.61151  6804   % 25.0152
    6805      -4.39343     32.24335         27.84992   9.61166  6805   % 25.0154
    6806      -4.39480     32.24486         27.85006   9.61180  6806   % 25.0155
    6807      -4.39586     32.24606         27.85019   9.61193  6807   % 25.0157
    6808      -4.39664     32.24695         27.85031   9.61206  6808   % 25.0158
    6809      -4.39714     32.24757         27.85042   9.61216  6809   % 25.0160
    6810      -4.39742     32.24793         27.85051   9.61225  6810   % 25.0162
    6811      -4.39753     32.24808         27.85055   9.61230  6811   % 25.0163
    6812      -4.39755     32.24812         27.85057   9.61231  6812   % 25.0165
    6813      -4.39757     32.24814         27.85057   9.61231  6813   % 25.0167
    6814      -4.39760     32.24816         27.85057   9.61231  6814   % 25.0169
    6815      -4.39763     32.24820         27.85057   9.61231  6815   % 25.0173
    6816      -4.39769     32.24826         27.85057   9.61231  6816   % 25.0177
    6817      -4.39776     32.24834         27.85057   9.61232  6817   % 25.0184
    6818      -4.39783     32.24846         27.85063   9.61237  6818   % 25.0191
    6819      -4.39481     32.24937         27.85456   9.61630  6819   % 25.0223
    6820      -4.39196     32.26468         27.87273   9.63447  6820   % 25.0188
    6821      -4.39462     32.26771         27.87310   9.63484  6821   % 25.0193
    6822      -4.39576     32.26897         27.87321   9.63495  6822   % 25.0196
    6823      -4.39675     32.27009         27.87334   9.63508  6823   % 25.0200
    6824      -4.39742     32.27087         27.87346   9.63520  6824   % 25.0203
    6825      -4.39783     32.27139         27.87355   9.63530  6825   % 25.0206
    6826      -4.39803     32.27166         27.87363   9.63537  6826   % 25.0209
    6827      -4.39809     32.27174         27.87365   9.63539  6827   % 25.0212
    6828      -4.39811     32.27176         27.87366   9.63540  6828   % 25.0214
    6829      -4.39813     32.27179         27.87366   9.63540  6829   % 25.0216
    6830      -4.39816     32.27182         27.87366   9.63540  6830   % 25.0219
    6831      -4.39821     32.27187         27.87366   9.63540  6831   % 25.0222
    6832      -4.39827     32.27193         27.87366   9.63541  6832   % 25.0228
    6833      -4.39833     32.27204         27.87371   9.63545  6833   % 25.0235
    6834      -4.39650     32.27272         27.87622   9.63796  6834   % 25.0254
    6835      -4.39362     32.28297         27.88935   9.65109  6835   % 25.0241
    6836      -4.39624     32.28608         27.88984   9.65158  6836   % 25.0244
    6837      -4.39707     32.28701         27.88994   9.65168  6837   % 25.0245
    6838      -4.39779     32.28785         27.89006   9.65180  6838   % 25.0247
    6839      -4.39824     32.28840         27.89016   9.65190  6839   % 25.0249
    6840      -4.39848     32.28871         27.89024   9.65198  6840   % 25.0251
    6841      -4.39855     32.28882         27.89027   9.65202  6841   % 25.0253
    6842      -4.39857     32.28885         27.89028   9.65202  6842   % 25.0254
    6843      -4.39859     32.28887         27.89028   9.65202  6843   % 25.0256
    6844      -4.39862     32.28890         27.89028   9.65202  6844   % 25.0259
    6845      -4.39866     32.28894         27.89028   9.65203  6845   % 25.0262
    6846      -4.39872     32.28900         27.89029   9.65203  6846   % 25.0267
    6847      -4.39879     32.28909         27.89029   9.65204  6847   % 25.0275
    6848      -4.39868     32.28927         27.89059   9.65233  6848   % 25.0282
    6849      -4.39119     32.29243         27.90124   9.66299  6849   % 25.0308
    6850      -4.39900     32.30746         27.90846   9.67020  6850   % 25.0294


 IRC CALCULATION COMPLETE 

 **********************
 *                    *
 * JOB ENDED NORMALLY *
 *                    *
 **********************



 TOTAL JOB TIME:           225.20 SECONDS

 == MOPAC DONE ==
