 *******************************************************************************
 ** Cite this program as: MOPAC2016, Version: 22.066W, James J. P. Stewart,   **
 **                           web-site: HTTP://OpenMOPAC.net.                 **
 *******************************************************************************
 **                                                                           **
 **                                MOPAC2016                                  **
 **                                                                           **
 *******************************************************************************

                              PM6-D3H4 CALCULATION RESULTS

 *******************************************************************************
 *  CALCULATION DONE:                                Mon May  9 22:57:52 2022  *
 *  PM6-D3H4   - CORRECT DISPERSION AND HYDROGEN BOND TERMS USING THE D3H4 METHOD
 *  GEO_DAT    - DATA SET GEOMETRY IS IN FILE "E2_TS.arc"
 *
 *
 *
 *                 CHARGE ON SYSTEM = 0
 *
 *
 *
 *  IRC=N      - INTRINSIC REACTION COORDINATE  1 DEFINED
 *  LET        - OVERRIDE SOME SAFETY CHECKS
 *  T=         - A TIME OF 172800.0 SECONDS REQUESTED
 *  DUMP=N     - RESTART FILE WRITTEN EVERY 7200.0 SECONDS REQUESTED
 *  CYCLES=    - DO A MAXIMUM OF 10000 STEPS
 *  LARGE      - EXPANDED OUTPUT TO BE PRINTED
 *******************************************************************************
PM6-D3H4 CHARGE=0 IRC=1 LARGE=100 LET CYCLES=10000 GEO_DAT="E2_TS.arc"
 (irc)

   ATOM   CHEMICAL          X               Y               Z
  NUMBER   SYMBOL      (ANGSTROMS)     (ANGSTROMS)     (ANGSTROMS)
 
     1       O         -0.22268997  *  -0.36750684  *  -0.11214961  *
     2       C          1.03631929  *  -0.21155242  *  -0.00921846  *
     3       C          1.54613858  *   1.05626916  *   0.46946447  *
     4       C          2.87464384  *   1.21660979  *   0.75166226  *
     5       C          3.79057530  *   0.14092710  *   0.58507029  *
     6       C          3.34835686  *  -1.04904311  *   0.05200477  *
     7       C          1.97392496  *  -1.28450288  *  -0.23500829  *
     8       H          0.82880723  *   1.86634995  *   0.56171275  *
     9       H          3.25512899  *   2.17509897  *   1.10818301  *
    10       H          4.83361755  *   0.28748902  *   0.84167665  *
    11       C          1.66025851  *  -2.42525519  *  -1.18199243  *
    12       H          1.63362557  *  -2.09768617  *   1.20551564  *
    13       C          0.19605515  *  -2.69481316  *  -1.38510306  *
    14       H          2.17888160  *  -3.35096243  *  -0.82814271  *
    15       H          2.08445353  *  -2.14878270  *  -2.18638127  *
    16       C         -0.38402085  *  -3.87138372  *  -1.14799149  *
    17       H         -0.37524922  *  -1.83189667  *  -1.75403502  *
    18       H          0.16071706  *  -4.73681248  *  -0.78182703  *
    19       H         -1.44320013  *  -4.03466747  *  -1.32781044  *
    20       O          1.28115382  *  -3.09767164  *   1.66901994  *
    21       C          0.01757838  *  -3.19222656  *   1.91481326  *
    22       C         -0.47144660  *  -4.52522905  *   2.17107908  *
    23       C         -1.81186381  *  -4.74772521  *   2.24707495  *
    24       C         -2.75830010  *  -3.66737440  *   2.11408486  *
    25       C         -2.32904829  *  -2.38789982  *   1.98541154  *
    26       C         -0.89807765  *  -2.03472888  *   1.90506943  *
    27       H          0.26818474  *  -5.32247475  *   2.26062283  *
    28       H         -2.20446468  *  -5.75658145  *   2.41068808  *
    29       H         -3.82028106  *  -3.91218483  *   2.13411182  *
    30       H         -3.03174512  *  -1.55092858  *   1.91749588  *
    31       C         -0.50313006  *  -0.88557513  *   2.86277589  *
    32       H         -0.76671301  *  -1.50333551  *   0.76180491  *
    33       C          0.61064070  *  -1.25654585  *   3.80004956  *
    34       H         -1.39318025  *  -0.60270175  *   3.47980466  *
    35       H         -0.21930667  *   0.01253350  *   2.24843380  *
    36       C          1.80539379  *  -0.66837062  *   3.78912286  *
    37       H          0.36351499  *  -2.04546755  *   4.51358231  *
    38       H          2.07319574  *   0.11579175  *   3.07680624  *
    39       H          2.59235510  *  -0.94071528  *   4.49084902  *
    40       H          4.06242021  *  -1.84975927  *  -0.15247077  *
 


          CARTESIAN COORDINATES 

    NO.       ATOM           X           Y           Z

     1         O         -0.2227     -0.3675     -0.1121
     2         C          1.0363     -0.2116     -0.0092
     3         C          1.5461      1.0563      0.4695
     4         C          2.8746      1.2166      0.7517
     5         C          3.7906      0.1409      0.5851
     6         C          3.3484     -1.0490      0.0520
     7         C          1.9739     -1.2845     -0.2350
     8         H          0.8288      1.8663      0.5617
     9         H          3.2551      2.1751      1.1082
    10         H          4.8336      0.2875      0.8417
    11         C          1.6603     -2.4253     -1.1820
    12         H          1.6336     -2.0977      1.2055
    13         C          0.1961     -2.6948     -1.3851
    14         H          2.1789     -3.3510     -0.8281
    15         H          2.0845     -2.1488     -2.1864
    16         C         -0.3840     -3.8714     -1.1480
    17         H         -0.3752     -1.8319     -1.7540
    18         H          0.1607     -4.7368     -0.7818
    19         H         -1.4432     -4.0347     -1.3278
    20         O          1.2812     -3.0977      1.6690
    21         C          0.0176     -3.1922      1.9148
    22         C         -0.4714     -4.5252      2.1711
    23         C         -1.8119     -4.7477      2.2471
    24         C         -2.7583     -3.6674      2.1141
    25         C         -2.3290     -2.3879      1.9854
    26         C         -0.8981     -2.0347      1.9051
    27         H          0.2682     -5.3225      2.2606
    28         H         -2.2045     -5.7566      2.4107
    29         H         -3.8203     -3.9122      2.1341
    30         H         -3.0317     -1.5509      1.9175
    31         C         -0.5031     -0.8856      2.8628
    32         H         -0.7667     -1.5033      0.7618
    33         C          0.6106     -1.2565      3.8000
    34         H         -1.3932     -0.6027      3.4798
    35         H         -0.2193      0.0125      2.2484
    36         C          1.8054     -0.6684      3.7891
    37         H          0.3635     -2.0455      4.5136
    38         H          2.0732      0.1158      3.0768
    39         H          2.5924     -0.9407      4.4908
    40         H          4.0624     -1.8498     -0.1525

 General Reference for PM6:
 "Optimization of Parameters for Semiempirical Methods V: Modification of NDDO Approximations
 and Application to 70 Elements", J. J. P. Stewart, J. Mol. Mod., 13, 1173-1213 (2007)
 URL: https://link.springer.com/article/10.1007/s00894-007-0233-4

           Empirical Formula: C18 H20 O2  =    40 atoms



      MOLECULAR POINT GROUP   :   C1  


      RHF CALCULATION, NO. OF DOUBLY OCCUPIED LEVELS = 52



          HEAT OF FORMATION =      20.121073 KCALS/MOLE


          GRADIENT NORM =   0.19845


          TIME FOR SCF CALCULATION =    0.11

          TIME FOR DERIVATIVES     =    0.02

          MOLECULAR WEIGHT =  268.35


          ESTIMATED TIME TO COMPLETE CALCULATION =       31.88 SECONDS

    FOR POINT-GROUP C1   THERE ARE   1 UNIQUE SYMMETRY FUNCTIONS.

 STEP:   1 TIME =     0.06 SECS, INTEGRAL =      0.06 TIME LEFT: 172799.80
 STEP:   2 TIME =     0.06 SECS, INTEGRAL =      0.12 TIME LEFT: 172799.74
 STEP:   3 TIME =     0.06 SECS, INTEGRAL =      0.19 TIME LEFT: 172799.68
 STEP:   4 TIME =     0.06 SECS, INTEGRAL =      0.25 TIME LEFT: 172799.62
 STEP:   5 TIME =     0.07 SECS, INTEGRAL =      0.32 TIME LEFT: 172799.55
 STEP:   6 TIME =     0.07 SECS, INTEGRAL =      0.39 TIME LEFT: 172799.48
 STEP:   7 TIME =     0.07 SECS, INTEGRAL =      0.46 TIME LEFT: 172799.41
 STEP:   8 TIME =     0.07 SECS, INTEGRAL =      0.53 TIME LEFT: 172799.34
 STEP:   9 TIME =     0.09 SECS, INTEGRAL =      0.62 TIME LEFT: 172799.25
 STEP:  10 TIME =     0.12 SECS, INTEGRAL =      0.73 TIME LEFT: 172799.13
 STEP:  11 TIME =     0.13 SECS, INTEGRAL =      0.87 TIME LEFT: 172799.00
 STEP:  12 TIME =     0.11 SECS, INTEGRAL =      0.98 TIME LEFT: 172798.89
 STEP:  13 TIME =     0.09 SECS, INTEGRAL =      1.06 TIME LEFT: 172798.80
 STEP:  14 TIME =     0.07 SECS, INTEGRAL =      1.13 TIME LEFT: 172798.73
 STEP:  15 TIME =     0.07 SECS, INTEGRAL =      1.20 TIME LEFT: 172798.66
 STEP:  16 TIME =     0.07 SECS, INTEGRAL =      1.27 TIME LEFT: 172798.59
 STEP:  17 TIME =     0.08 SECS, INTEGRAL =      1.35 TIME LEFT: 172798.52
 STEP:  18 TIME =     0.07 SECS, INTEGRAL =      1.42 TIME LEFT: 172798.45
 STEP:  19 TIME =     0.07 SECS, INTEGRAL =      1.49 TIME LEFT: 172798.38
 STEP:  20 TIME =     0.07 SECS, INTEGRAL =      1.56 TIME LEFT: 172798.30
 STEP:  21 TIME =     0.07 SECS, INTEGRAL =      1.63 TIME LEFT: 172798.23
 STEP:  22 TIME =     0.06 SECS, INTEGRAL =      1.70 TIME LEFT: 172798.17
 STEP:  23 TIME =     0.06 SECS, INTEGRAL =      1.76 TIME LEFT: 172798.11
 STEP:  24 TIME =     0.06 SECS, INTEGRAL =      1.82 TIME LEFT: 172798.05
 STEP:  25 TIME =     0.07 SECS, INTEGRAL =      1.89 TIME LEFT: 172797.98
 STEP:  26 TIME =     0.06 SECS, INTEGRAL =      1.95 TIME LEFT: 172797.91
 STEP:  27 TIME =     0.06 SECS, INTEGRAL =      2.02 TIME LEFT: 172797.85
 STEP:  28 TIME =     0.06 SECS, INTEGRAL =      2.08 TIME LEFT: 172797.79
 STEP:  29 TIME =     0.05 SECS, INTEGRAL =      2.13 TIME LEFT: 172797.73
 STEP:  30 TIME =     0.06 SECS, INTEGRAL =      2.20 TIME LEFT: 172797.67
 STEP:  31 TIME =     0.06 SECS, INTEGRAL =      2.26 TIME LEFT: 172797.61
 STEP:  32 TIME =     0.07 SECS, INTEGRAL =      2.33 TIME LEFT: 172797.54
 STEP:  33 TIME =     0.05 SECS, INTEGRAL =      2.38 TIME LEFT: 172797.48
 STEP:  34 TIME =     0.07 SECS, INTEGRAL =      2.45 TIME LEFT: 172797.41
 STEP:  35 TIME =     0.06 SECS, INTEGRAL =      2.52 TIME LEFT: 172797.35
 STEP:  36 TIME =     0.07 SECS, INTEGRAL =      2.59 TIME LEFT: 172797.28
 STEP:  37 TIME =     0.06 SECS, INTEGRAL =      2.65 TIME LEFT: 172797.22
 STEP:  38 TIME =     0.06 SECS, INTEGRAL =      2.71 TIME LEFT: 172797.16
 STEP:  39 TIME =     0.07 SECS, INTEGRAL =      2.78 TIME LEFT: 172797.09
 STEP:  40 TIME =     0.06 SECS, INTEGRAL =      2.84 TIME LEFT: 172797.02
 STEP:  41 TIME =     0.06 SECS, INTEGRAL =      2.91 TIME LEFT: 172796.96
 STEP:  42 TIME =     0.05 SECS, INTEGRAL =      2.96 TIME LEFT: 172796.91
 STEP:  43 TIME =     0.06 SECS, INTEGRAL =      3.02 TIME LEFT: 172796.84
 STEP:  44 TIME =     0.06 SECS, INTEGRAL =      3.09 TIME LEFT: 172796.78
 STEP:  45 TIME =     0.06 SECS, INTEGRAL =      3.15 TIME LEFT: 172796.72
 STEP:  46 TIME =     0.06 SECS, INTEGRAL =      3.21 TIME LEFT: 172796.66
 STEP:  47 TIME =     0.07 SECS, INTEGRAL =      3.28 TIME LEFT: 172796.59
 STEP:  48 TIME =     0.06 SECS, INTEGRAL =      3.34 TIME LEFT: 172796.52
 STEP:  49 TIME =     0.06 SECS, INTEGRAL =      3.41 TIME LEFT: 172796.46
 STEP:  50 TIME =     0.06 SECS, INTEGRAL =      3.47 TIME LEFT: 172796.40
 STEP:  51 TIME =     0.06 SECS, INTEGRAL =      3.53 TIME LEFT: 172796.34
 STEP:  52 TIME =     0.05 SECS, INTEGRAL =      3.59 TIME LEFT: 172796.28
 STEP:  53 TIME =     0.07 SECS, INTEGRAL =      3.66 TIME LEFT: 172796.21
 STEP:  54 TIME =     0.06 SECS, INTEGRAL =      3.72 TIME LEFT: 172796.15
 STEP:  55 TIME =     0.06 SECS, INTEGRAL =      3.78 TIME LEFT: 172796.09
 STEP:  56 TIME =     0.06 SECS, INTEGRAL =      3.84 TIME LEFT: 172796.02
 STEP:  57 TIME =     0.07 SECS, INTEGRAL =      3.91 TIME LEFT: 172795.95
 STEP:  58 TIME =     0.06 SECS, INTEGRAL =      3.98 TIME LEFT: 172795.89
 STEP:  59 TIME =     0.06 SECS, INTEGRAL =      4.04 TIME LEFT: 172795.83
 STEP:  60 TIME =     0.07 SECS, INTEGRAL =      4.11 TIME LEFT: 172795.76
 STEP:  61 TIME =     0.06 SECS, INTEGRAL =      4.17 TIME LEFT: 172795.70
 STEP:  62 TIME =     0.06 SECS, INTEGRAL =      4.23 TIME LEFT: 172795.63
 STEP:  63 TIME =     0.07 SECS, INTEGRAL =      4.30 TIME LEFT: 172795.56
 STEP:  64 TIME =     0.06 SECS, INTEGRAL =      4.37 TIME LEFT: 172795.50
 STEP:  65 TIME =     0.07 SECS, INTEGRAL =      4.44 TIME LEFT: 172795.43
 STEP:  66 TIME =     0.07 SECS, INTEGRAL =      4.51 TIME LEFT: 172795.36
 STEP:  67 TIME =     0.07 SECS, INTEGRAL =      4.58 TIME LEFT: 172795.29
 STEP:  68 TIME =     0.07 SECS, INTEGRAL =      4.65 TIME LEFT: 172795.22
 STEP:  69 TIME =     0.06 SECS, INTEGRAL =      4.71 TIME LEFT: 172795.16
 STEP:  70 TIME =     0.06 SECS, INTEGRAL =      4.77 TIME LEFT: 172795.09
 STEP:  71 TIME =     0.06 SECS, INTEGRAL =      4.84 TIME LEFT: 172795.03
 STEP:  72 TIME =     0.06 SECS, INTEGRAL =      4.90 TIME LEFT: 172794.97
 STEP:  73 TIME =     0.06 SECS, INTEGRAL =      4.96 TIME LEFT: 172794.91
 STEP:  74 TIME =     0.07 SECS, INTEGRAL =      5.03 TIME LEFT: 172794.84
 STEP:  75 TIME =     0.06 SECS, INTEGRAL =      5.09 TIME LEFT: 172794.77
 STEP:  76 TIME =     0.06 SECS, INTEGRAL =      5.16 TIME LEFT: 172794.71
 STEP:  77 TIME =     0.07 SECS, INTEGRAL =      5.23 TIME LEFT: 172794.64
 STEP:  78 TIME =     0.06 SECS, INTEGRAL =      5.29 TIME LEFT: 172794.58
 STEP:  79 TIME =     0.06 SECS, INTEGRAL =      5.35 TIME LEFT: 172794.52
 STEP:  80 TIME =     0.06 SECS, INTEGRAL =      5.41 TIME LEFT: 172794.45
 STEP:  81 TIME =     0.06 SECS, INTEGRAL =      5.48 TIME LEFT: 172794.39
 STEP:  82 TIME =     0.06 SECS, INTEGRAL =      5.54 TIME LEFT: 172794.33
 STEP:  83 TIME =     0.06 SECS, INTEGRAL =      5.60 TIME LEFT: 172794.27
 STEP:  84 TIME =     0.06 SECS, INTEGRAL =      5.66 TIME LEFT: 172794.20
 STEP:  85 TIME =     0.06 SECS, INTEGRAL =      5.73 TIME LEFT: 172794.14
 STEP:  86 TIME =     0.05 SECS, INTEGRAL =      5.78 TIME LEFT: 172794.09
 STEP:  87 TIME =     0.06 SECS, INTEGRAL =      5.84 TIME LEFT: 172794.02
 STEP:  88 TIME =     0.06 SECS, INTEGRAL =      5.91 TIME LEFT: 172793.96
 STEP:  89 TIME =     0.08 SECS, INTEGRAL =      5.98 TIME LEFT: 172793.88
 STEP:  90 TIME =     0.06 SECS, INTEGRAL =      6.05 TIME LEFT: 172793.82
 STEP:  91 TIME =     0.07 SECS, INTEGRAL =      6.12 TIME LEFT: 172793.75
 STEP:  92 TIME =     0.06 SECS, INTEGRAL =      6.18 TIME LEFT: 172793.69
 STEP:  93 TIME =     0.06 SECS, INTEGRAL =      6.24 TIME LEFT: 172793.62
 STEP:  94 TIME =     0.06 SECS, INTEGRAL =      6.30 TIME LEFT: 172793.56
 STEP:  95 TIME =     0.06 SECS, INTEGRAL =      6.37 TIME LEFT: 172793.50
 STEP:  96 TIME =     0.06 SECS, INTEGRAL =      6.43 TIME LEFT: 172793.44
 STEP:  97 TIME =     0.06 SECS, INTEGRAL =      6.49 TIME LEFT: 172793.38
 STEP:  98 TIME =     0.06 SECS, INTEGRAL =      6.55 TIME LEFT: 172793.31
 STEP:  99 TIME =     0.06 SECS, INTEGRAL =      6.62 TIME LEFT: 172793.25
 STEP: 100 TIME =     0.07 SECS, INTEGRAL =      6.69 TIME LEFT: 172793.18
 STEP: 101 TIME =     0.06 SECS, INTEGRAL =      6.75 TIME LEFT: 172793.12
 STEP: 102 TIME =     0.06 SECS, INTEGRAL =      6.81 TIME LEFT: 172793.05
 STEP: 103 TIME =     0.07 SECS, INTEGRAL =      6.88 TIME LEFT: 172792.98
 STEP: 104 TIME =     0.05 SECS, INTEGRAL =      6.94 TIME LEFT: 172792.93
 STEP: 105 TIME =     0.06 SECS, INTEGRAL =      7.00 TIME LEFT: 172792.87
 STEP: 106 TIME =     0.06 SECS, INTEGRAL =      7.06 TIME LEFT: 172792.80
 STEP: 107 TIME =     0.06 SECS, INTEGRAL =      7.12 TIME LEFT: 172792.74
 STEP: 108 TIME =     0.06 SECS, INTEGRAL =      7.19 TIME LEFT: 172792.68
 STEP: 109 TIME =     0.06 SECS, INTEGRAL =      7.25 TIME LEFT: 172792.62
 STEP: 110 TIME =     0.06 SECS, INTEGRAL =      7.31 TIME LEFT: 172792.55
 STEP: 111 TIME =     0.05 SECS, INTEGRAL =      7.37 TIME LEFT: 172792.50
 STEP: 112 TIME =     0.06 SECS, INTEGRAL =      7.43 TIME LEFT: 172792.44
 STEP: 113 TIME =     0.06 SECS, INTEGRAL =      7.49 TIME LEFT: 172792.38
 STEP: 114 TIME =     0.06 SECS, INTEGRAL =      7.55 TIME LEFT: 172792.31
 STEP: 115 TIME =     0.05 SECS, INTEGRAL =      7.61 TIME LEFT: 172792.26
 STEP: 116 TIME =     0.09 SECS, INTEGRAL =      7.70 TIME LEFT: 172792.17
 STEP: 117 TIME =     0.05 SECS, INTEGRAL =      7.75 TIME LEFT: 172792.12
 STEP: 118 TIME =     0.06 SECS, INTEGRAL =      7.81 TIME LEFT: 172792.05
 STEP: 119 TIME =     0.06 SECS, INTEGRAL =      7.88 TIME LEFT: 172791.99
 STEP: 120 TIME =     0.06 SECS, INTEGRAL =      7.94 TIME LEFT: 172791.93
           INITIAL VELOCITY IN DRC (Angstroms/Femtosecond)
        -0.02142        -0.00870         0.02467
         0.02249        -0.00639         0.00947
        -0.01011        -0.01091         0.00255
         0.00658        -0.00594         0.00005
        -0.00298         0.00936         0.00182
        -0.01445        -0.00407         0.00103
         0.01406         0.01397        -0.05587
        -0.00331        -0.00679         0.00770
        -0.00665         0.00038        -0.00170
        -0.00323        -0.00364         0.00478
        -0.00117         0.00328         0.00890
        -0.03598        -0.00962         0.33194
        -0.00028         0.00071         0.00136
        -0.00104         0.01459         0.02077
        -0.00152        -0.01575         0.00743
        -0.00017        -0.00016         0.00031
         0.00149        -0.00191        -0.00392
        -0.00007         0.00018         0.00024
         0.00018        -0.00228        -0.00201
         0.01269        -0.00769         0.00231
        -0.02921         0.01276        -0.00068
         0.00610         0.00479        -0.01106
        -0.00495         0.00556        -0.00221
         0.00299        -0.00492        -0.00190
         0.01414        -0.00069        -0.01185
         0.00151        -0.00459         0.01644
        -0.00195         0.00035        -0.01122
         0.00485         0.00291         0.00388
         0.00232         0.00488        -0.00431
         0.00888        -0.00154        -0.00481
         0.00115        -0.00018        -0.00684
         0.11024         0.10513        -0.16599
         0.00010         0.00033        -0.00176
         0.00059         0.00003        -0.00644
         0.00234         0.00325        -0.00377
         0.00003         0.00033        -0.00060
        -0.00235         0.00337        -0.00094
         0.00065         0.00243        -0.00102
        -0.00003         0.00354         0.00030
        -0.00626         0.00295         0.00648


     POINT   POTENTIAL  +  ENERGY LOST   =   TOTAL      ERROR    REF%   MOVEMENT
       1      20.12108      0.00000         20.12108   0.00000     1   %  0.0000
       2      17.86629      0.00000         17.86629  -2.25479     2   %  0.4425
       3      17.54541      0.00000         17.54541  -0.32088     3   %  0.4873
       4      17.34758      0.19574         17.54331  -0.32298     4   %  0.4982
       5      17.28455      0.25864         17.54319  -0.32310     5   %  0.5018
       6      17.20259      0.34056         17.54315  -0.32314     6   %  0.5066
       7      17.08462      0.45776         17.54238  -0.32391     7   %  0.5135
       8      17.02286      0.51925         17.54211  -0.32418     8   %  0.5171
       9      16.96900      0.57302         17.54201  -0.32428     9   %  0.5203
      10      16.89159      0.65009         17.54168  -0.32461    10   %  0.5248
      11      16.83059      0.71083         17.54143  -0.32486    11   %  0.5284
      12      16.77480      0.76647         17.54126  -0.32503    12   %  0.5317
      13      16.71206      0.82898         17.54104  -0.32525    13   %  0.5354
      14      16.65210      0.88871         17.54081  -0.32548    14   %  0.5389
      15      16.59425      0.94637         17.54062  -0.32567    15   %  0.5422
      16      16.53467      1.00574         17.54041  -0.32588    16   %  0.5457
      17      16.47520      1.06500         17.54020  -0.32609    17   %  0.5491
      18      16.41625      1.12374         17.53999  -0.32629    18   %  0.5525
      19      16.35676      1.18303         17.53979  -0.32650    19   %  0.5559
      20      16.29696      1.24262         17.53958  -0.32671    20   %  0.5592
      21      16.23706      1.30232         17.53938  -0.32691    21   %  0.5626
      22      16.17676      1.36241         17.53917  -0.32712    22   %  0.5660
      23      16.11607      1.42290         17.53897  -0.32732    23   %  0.5694
      24      16.05503      1.48374         17.53876  -0.32753    24   %  0.5727
      25      15.99355      1.54501         17.53856  -0.32773    25   %  0.5761
      26      15.93161      1.60675         17.53835  -0.32793    26   %  0.5795
      27      15.86920      1.66895         17.53815  -0.32814    27   %  0.5828
      28      15.80629      1.73166         17.53795  -0.32834    28   %  0.5862
      29      15.74286      1.79489         17.53774  -0.32855    29   %  0.5896
      30      15.67888      1.85866         17.53754  -0.32875    30   %  0.5930
      31      15.61436      1.92298         17.53734  -0.32895    31   %  0.5964
      32      15.54925      1.98788         17.53713  -0.32915    32   %  0.5998
      33      15.48356      2.05337         17.53693  -0.32936    33   %  0.6032
      34      15.41726      2.11947         17.53673  -0.32956    34   %  0.6066
      35      15.35034      2.18618         17.53653  -0.32976    35   %  0.6101
      36      15.28279      2.25353         17.53632  -0.32997    36   %  0.6135
      37      15.21460      2.32152         17.53612  -0.33017    37   %  0.6170
      38      15.14576      2.39016         17.53592  -0.33037    38   %  0.6204
      39      15.07624      2.45947         17.53571  -0.33057    39   %  0.6239
      40      15.00606      2.52945         17.53551  -0.33078    40   %  0.6273
      41      14.93519      2.60012         17.53531  -0.33098    41   %  0.6308
      42      14.86362      2.67149         17.53511  -0.33118    42   %  0.6343
      43      14.79134      2.74356         17.53491  -0.33138    43   %  0.6378
      44      14.71836      2.81635         17.53470  -0.33158    44   %  0.6414
      45      14.64464      2.88986         17.53450  -0.33179    45   %  0.6449
      46      14.57020      2.96410         17.53430  -0.33199    46   %  0.6484
      47      14.49501      3.03909         17.53410  -0.33219    47   %  0.6520
      48      14.41906      3.11484         17.53390  -0.33239    48   %  0.6556
      49      14.34234      3.19135         17.53370  -0.33259    49   %  0.6592
      50      14.26485      3.26864         17.53349  -0.33279    50   %  0.6628
      51      14.18656      3.34673         17.53329  -0.33300    51   %  0.6664
      52      14.10746      3.42563         17.53309  -0.33320    52   %  0.6700
      53      14.02754      3.50535         17.53289  -0.33340    53   %  0.6737
      54      13.94677      3.58592         17.53269  -0.33360    54   %  0.6773
      55      13.86513      3.66735         17.53249  -0.33380    55   %  0.6810
      56      13.78261      3.74968         17.53229  -0.33400    56   %  0.6847
      57      13.69916      3.83293         17.53209  -0.33420    57   %  0.6884
      58      13.61476      3.91713         17.53189  -0.33440    58   %  0.6922
      59      13.52937      4.00232         17.53169  -0.33460    59   %  0.6959
      60      13.44296      4.08853         17.53149  -0.33480    60   %  0.6997
      61      13.35547      4.17582         17.53129  -0.33500    61   %  0.7035
      62      13.26686      4.26423         17.53109  -0.33520    62   %  0.7074
      63      13.17706      4.35383         17.53089  -0.33540    63   %  0.7113
      64      13.08601      4.44469         17.53069  -0.33560    64   %  0.7152
      65      12.99362      4.53687         17.53049  -0.33580    65   %  0.7191
      66      12.89983      4.63047         17.53029  -0.33599    66   %  0.7231
      67      12.80452      4.72558         17.53010  -0.33619    67   %  0.7272
      68      12.70758      4.82232         17.52990  -0.33639    68   %  0.7312
      69      12.60888      4.92082         17.52970  -0.33659    69   %  0.7354
      70      12.50828      5.02123         17.52951  -0.33678    70   %  0.7396
      71      12.40560      5.12372         17.52931  -0.33698    71   %  0.7438
      72      12.30064      5.22848         17.52912  -0.33717    72   %  0.7482
      73      12.19317      5.33575         17.52892  -0.33737    73   %  0.7526
      74      12.08293      5.44580         17.52873  -0.33756    74   %  0.7571
      75      11.96958      5.55896         17.52854  -0.33775    75   %  0.7617
      76      11.85273      5.67561         17.52835  -0.33794    76   %  0.7665
      77      11.73193      5.79623         17.52816  -0.33813    77   %  0.7714
      78      11.60657      5.92140         17.52797  -0.33832    78   %  0.7764
      79      11.47592      6.05186         17.52778  -0.33851    79   %  0.7817
      80      11.33905      6.18856         17.52760  -0.33869    80   %  0.7871
      81      11.19468      6.33274         17.52742  -0.33887    81   %  0.7929
      82      11.04108      6.48616         17.52724  -0.33904    82   %  0.7990
      83      10.87579      6.65129         17.52707  -0.33921    83   %  0.8055
      84      10.69498      6.83194         17.52691  -0.33938    84   %  0.8126
      85      10.49232      7.03445         17.52676  -0.33953    85   %  0.8206
      86      10.25580      7.27083         17.52663  -0.33965    86   %  0.8299
      87       9.95705      7.56950         17.52655  -0.33974    87   %  0.8415
      88       9.53041      7.99617         17.52658  -0.33971    88   %  0.8581
      89       8.92357      8.60279         17.52635  -0.33994    89   %  0.8818
      90       8.35997      9.16743         17.52740  -0.33889    90   %  0.9038
      91       8.11514      9.41284         17.52798  -0.33831    91   %  0.9135
      92       7.97170      9.55689         17.52858  -0.33771    92   %  0.9192
      93       7.88961      9.63917         17.52878  -0.33751    93   %  0.9225
      94       7.80712      9.72180         17.52892  -0.33736    94   %  0.9258
      95       7.71030      9.81879         17.52908  -0.33721    95   %  0.9296
      96       7.60220      9.92709         17.52929  -0.33700    96   %  0.9340
      97       7.49620     10.03331         17.52951  -0.33678    97   %  0.9382
      98       7.39583     10.13390         17.52973  -0.33656    98   %  0.9423
      99       7.29972     10.23021         17.52993  -0.33636    99   %  0.9462
     100       7.20539     10.32475         17.53013  -0.33615   100   %  0.9500


          FINAL GEOMETRY OBTAINED                                 CHARGE
 PM6-D3H4 CHARGE=0 IRC=1 LARGE=100 LET CYCLES=10000
 (irc)

   O    0.000000  0    0.000000  0    0.000000  0   0  0  0   -0.5982     100AA*
   C    1.323990  1    0.000000  0    0.000000  0   1  0  0    0.3799     100AB*
   C    1.425069  1  117.894535  1    0.000000  0   2  1  0   -0.3263     100AC*
   C    1.382954  1  119.887092  1  171.631042  1   3  2  1   -0.0413     100AD*
   C    1.408642  1  120.586182  1  359.841959  1   4  3  2   -0.2582     100AE*
   C    1.388138  1  119.536804  1    4.407444  1   5  4  3   -0.0688     100AF*
   C    1.410709  1  121.634027  1  356.318564  1   6  5  4   -0.2491     100AG*
   H    1.087288  1  118.238192  1  350.485253  1   3  2  1    0.1775     100AH*
   H    1.090597  1  120.160814  1  180.016882  1   4  3  2    0.1395     100AI*
   H    1.086442  1  119.806158  1  181.978184  1   5  4  3    0.1556     100AJ*
   C    1.511456  1  117.152758  1  163.834960  1   7  6  5   -0.2557     100AK*
   H    1.931604  1   93.699892  1  263.400517  1   7  6  5    0.3698     100AL*
   C    1.502016  1  115.474432  1  174.304382  1  11  7  6   -0.0861     100AM*
   H    1.118902  1  109.781136  1   48.873630  1  11  7  6    0.1528     100AN*
   H    1.127137  1  106.037195  1  292.265590  1  11  7  6    0.1595     100AO*
   C    1.332250  1  123.888682  1  235.229722  1  13 11  7   -0.3848     100AP*
   H    1.097695  1  114.332781  1   55.733124  1  13 11  7    0.1591     100AQ*
   H    1.087457  1  123.025619  1    0.418041  1  16 13 11    0.1554     100AR*
   H    1.087689  1  121.877653  1  181.099435  1  16 13 11    0.1540     100AS*
   O    1.028665  1  135.563361  1  242.934508  1  12  7  6   -0.4513     100AT*
   C    1.327882  1  113.552237  1  261.302905  1  20 12  7    0.4859     100AU*
   C    1.430626  1  113.820091  1  174.001582  1  21 20 12   -0.3874     100AV*
   C    1.371746  1  118.577348  1  188.738793  1  22 21 20    0.0683     100AW*
   C    1.428484  1  121.117211  1  359.106141  1  23 22 21   -0.3402     100AX*
   C    1.371866  1  120.257122  1  355.848720  1  24 23 22    0.0616     100AY*
   C    1.441791  1  123.958687  1  354.231275  1  21 20 12   -0.4425     100B@*
   H    1.088595  1  118.662123  1    7.343136  1  22 21 20    0.1914     100BA*
   H    1.093116  1  120.396747  1  178.944231  1  23 22 21    0.1379     100BB*
   H    1.088136  1  118.525489  1  176.870677  1  24 23 22    0.1676     100BC*
   H    1.093200  1  120.711333  1  182.752044  1  25 24 23    0.1389     100BD*
   C    1.540287  1  116.308304  1  306.107953  1  26 21 20   -0.2230     100BE*
   H    1.615233  1  105.670980  1   51.387318  1  26 21 20    0.4118     100BF*
   C    1.506337  1  112.287549  1  348.046993  1  31 26 21   -0.1164     100BG*
   H    1.120811  1  108.395434  1  229.385524  1  31 26 21    0.1512     100BH*
   H    1.119807  1  110.594696  1  111.950751  1  31 26 21    0.1627     100BI*
   C    1.331836  1  123.302298  1  117.225401  1  33 31 26   -0.3552     100BJ*
   H    1.092321  1  114.786775  1  296.564860  1  33 31 26    0.1420     100BK*
   H    1.091136  1  122.829556  1  358.786513  1  36 33 31    0.1636     100BL*
   H    1.088555  1  122.195788  1  178.936293  1  36 33 31    0.1554     100BM*
   H    1.091556  1  119.446636  1  175.266283  1   6  5  4    0.1432     100BN*


     POINT   POTENTIAL  +  ENERGY LOST   =   TOTAL      ERROR    REF%   MOVEMENT
     101       7.11190     10.41844         17.53034  -0.33595   101   %  0.9538
     102       7.01938     10.51116         17.53054  -0.33575   102   %  0.9576
     103       6.92815     10.60259         17.53074  -0.33554   103   %  0.9613
     104       6.83830     10.69265         17.53095  -0.33534   104   %  0.9650
     105       6.74971     10.78144         17.53115  -0.33514   105   %  0.9687
     106       6.66228     10.86907         17.53135  -0.33493   106   %  0.9723
     107       6.57593     10.95563         17.53156  -0.33473   107   %  0.9759
     108       6.49061     11.04115         17.53176  -0.33453   108   %  0.9795
     109       5.91602     11.12568         17.04170  -0.82459   109   %  0.9830
     110       5.91224     11.12945         17.04169  -0.82460   110   %  0.9832
     111       5.90691     11.13478         17.04169  -0.82460   111   %  0.9834
     112       5.89938     11.14232         17.04169  -0.82459   112   %  0.9837
     113       5.88873     11.15296         17.04169  -0.82459   113   %  0.9841
     114       5.87368     11.16802         17.04170  -0.82459   114   %  0.9848
     115       5.85243     11.18929         17.04171  -0.82457   115   %  0.9856
     116       5.82242     11.21932         17.04174  -0.82455   116   %  0.9869
     117       5.78008     11.26171         17.04179  -0.82450   117   %  0.9886
     118       5.72040     11.32147         17.04188  -0.82441   118   %  0.9911
     119       5.63643     11.40564         17.04206  -0.82422   119   %  0.9946
     120       5.54967     11.49260         17.04228  -0.82401   120   %  0.9982
     121       5.46640     11.57609         17.04249  -0.82380   121   %  1.0017
     122       5.38647     11.65623         17.04270  -0.82359   122   %  1.0050
     123       5.30778     11.73511         17.04290  -0.82339   123   %  1.0083
     124       5.22956     11.81353         17.04309  -0.82319   124   %  1.0117
     125       5.15181     11.89148         17.04330  -0.82299   125   %  1.0150
     126       5.07472     11.96877         17.04350  -0.82279   126   %  1.0183
     127       4.99834     12.04535         17.04370  -0.82259   127   %  1.0216
     128       4.92264     12.12126         17.04390  -0.82239   128   %  1.0248
     129       4.84758     12.19651         17.04410  -0.82219   129   %  1.0281
     130       4.77314     12.27116         17.04430  -0.82199   130   %  1.0313
     131       4.69930     12.34520         17.04450  -0.82179   131   %  1.0346
     132       4.62604     12.41866         17.04470  -0.82159   132   %  1.0378
     133       4.55334     12.49155         17.04490  -0.82139   133   %  1.0410
     134       4.48120     12.56390         17.04510  -0.82119   134   %  1.0442
     135       4.40959     12.63571         17.04530  -0.82099   135   %  1.0474
     136       4.33850     12.70700         17.04550  -0.82079   136   %  1.0506
     137       4.26791     12.77779         17.04570  -0.82059   137   %  1.0538
     138       4.19782     12.84808         17.04590  -0.82039   138   %  1.0570
     139       4.12820     12.91789         17.04609  -0.82019   139   %  1.0602
     140       4.05905     12.98724         17.04629  -0.81999   140   %  1.0633
     141       3.99035     13.05614         17.04649  -0.81980   141   %  1.0665
     142       3.92210     13.12460         17.04669  -0.81960   142   %  1.0696
     143       3.85427     13.19262         17.04689  -0.81940   143   %  1.0728
     144       3.78686     13.26023         17.04709  -0.81920   144   %  1.0760
     145       3.71986     13.32743         17.04729  -0.81900   145   %  1.0791
     146       3.65325     13.39424         17.04749  -0.81880   146   %  1.0823
     147       3.58703     13.46066         17.04769  -0.81860   147   %  1.0854
     148       3.52119     13.52670         17.04788  -0.81840   148   %  1.0885
     149       3.45571     13.59238         17.04808  -0.81821   149   %  1.0917
     150       3.39058     13.65770         17.04828  -0.81801   150   %  1.0948
     151       3.32580     13.72268         17.04848  -0.81781   151   %  1.0980
     152       3.26136     13.78732         17.04868  -0.81761   152   %  1.1011
     153       3.19725     13.85163         17.04888  -0.81741   153   %  1.1043
     154       3.13345     13.91562         17.04907  -0.81721   154   %  1.1074
     155       3.06996     13.97931         17.04927  -0.81702   155   %  1.1106
     156       3.00678     14.04270         17.04947  -0.81682   156   %  1.1137
     157       2.94388     14.10579         17.04967  -0.81662   157   %  1.1169
     158       2.88127     14.16860         17.04987  -0.81642   158   %  1.1200
     159       2.81893     14.23114         17.05006  -0.81622   159   %  1.1232
     160       2.75686     14.29341         17.05026  -0.81603   160   %  1.1264
     161       2.69504     14.35542         17.05046  -0.81583   161   %  1.1295
     162       2.63347     14.41718         17.05066  -0.81563   162   %  1.1327
     163       2.57215     14.47871         17.05085  -0.81543   163   %  1.1359
     164       2.51106     14.54000         17.05105  -0.81524   164   %  1.1391
     165       2.45019     14.60106         17.05125  -0.81504   165   %  1.1423
     166       2.38954     14.66191         17.05145  -0.81484   166   %  1.1455
     167       2.32909     14.72255         17.05164  -0.81464   167   %  1.1487
     168       2.26885     14.78299         17.05184  -0.81445   168   %  1.1519
     169       2.20880     14.84324         17.05204  -0.81425   169   %  1.1551
     170       2.14893     14.90330         17.05223  -0.81405   170   %  1.1584
     171       2.08924     14.96319         17.05243  -0.81386   171   %  1.1616
     172       2.02972     15.02291         17.05263  -0.81366   172   %  1.1648
     173       1.97036     15.08246         17.05283  -0.81346   173   %  1.1681
     174       1.91115     15.14187         17.05302  -0.81327   174   %  1.1714
     175       1.85209     15.20113         17.05322  -0.81307   175   %  1.1746
     176       1.79316     15.26026         17.05342  -0.81287   176   %  1.1779
     177       1.73436     15.31925         17.05361  -0.81268   177   %  1.1812
     178       1.67568     15.37813         17.05381  -0.81248   178   %  1.1845
     179       1.61711     15.43689         17.05401  -0.81228   179   %  1.1879
     180       1.55865     15.49555         17.05420  -0.81209   180   %  1.1912
     181       1.50028     15.55411         17.05440  -0.81189   181   %  1.1946
     182       1.44201     15.61259         17.05459  -0.81169   182   %  1.1979
     183       1.38381     15.67098         17.05479  -0.81150   183   %  1.2013
     184       1.32568     15.72931         17.05499  -0.81130   184   %  1.2047
     185       1.26762     15.78757         17.05518  -0.81111   185   %  1.2081
     186       1.20961     15.84577         17.05538  -0.81091   186   %  1.2115
     187       1.15165     15.90392         17.05557  -0.81071   187   %  1.2150
     188       1.09373     15.96204         17.05577  -0.81052   188   %  1.2184
     189       1.03584     16.02013         17.05597  -0.81032   189   %  1.2219
     190       0.97797     16.07819         17.05616  -0.81013   190   %  1.2254
     191       0.92012     16.13624         17.05636  -0.80993   191   %  1.2289
     192       0.86227     16.19428         17.05655  -0.80974   192   %  1.2324
     193       0.80442     16.25233         17.05675  -0.80954   193   %  1.2360
     194       0.74657     16.31040         17.05696  -0.80933   194   %  1.2395
     195       0.69122     16.36592         17.05714  -0.80915   195   %  1.2430
     196       0.63349     16.42384         17.05734  -0.80895   196   %  1.2466
     197       0.57555     16.48198         17.05753  -0.80876   197   %  1.2502
     198       0.51748     16.54025         17.05773  -0.80856   198   %  1.2539
     199       0.45943     16.59850         17.05792  -0.80837   199   %  1.2575
     200       0.40133     16.65678         17.05812  -0.80817   200   %  1.2612


          FINAL GEOMETRY OBTAINED                                 CHARGE
 PM6-D3H4 CHARGE=0 IRC=1 LARGE=100 LET CYCLES=10000
 (irc)

   O    0.000000  0    0.000000  0    0.000000  0   0  0  0   -0.5516     200AA*
   C    1.344854  1    0.000000  0    0.000000  0   1  0  0    0.3333     200AB*
   C    1.416328  1  117.352731  1    0.000000  0   2  1  0   -0.2956     200AC*
   C    1.387504  1  119.455017  1  171.841385  1   3  2  1   -0.0613     200AD*
   C    1.405413  1  120.488275  1  359.902325  1   4  3  2   -0.2306     200AE*
   C    1.390269  1  119.640943  1    4.433575  1   5  4  3   -0.0912     200AF*
   C    1.409312  1  121.500541  1  356.724960  1   6  5  4   -0.1987     200AG*
   H    1.088020  1  118.817947  1  351.079566  1   3  2  1    0.1781     200AH*
   H    1.090483  1  120.037290  1  180.163185  1   4  3  2    0.1435     200AI*
   H    1.087556  1  119.896426  1  182.132503  1   5  4  3    0.1560     200AJ*
   C    1.510210  1  117.272300  1  164.198580  1   7  6  5   -0.2607     200AK*
   H    1.977350  1   93.194257  1  263.530298  1   7  6  5    0.3571     200AL*
   C    1.501789  1  115.613990  1  173.906852  1  11  7  6   -0.0984     200AM*
   H    1.119505  1  109.815931  1   48.420548  1  11  7  6    0.1578     200AN*
   H    1.127532  1  105.825925  1  291.851629  1  11  7  6    0.1609     200AO*
   C    1.331788  1  123.883913  1  234.814196  1  13 11  7   -0.3673     200AP*
   H    1.097068  1  114.394505  1   55.693184  1  13 11  7    0.1569     200AQ*
   H    1.088085  1  123.022039  1    0.705071  1  16 13 11    0.1565     200AR*
   H    1.088165  1  121.907903  1  180.914704  1  16 13 11    0.1541     200AS*
   O    1.012007  1  133.259595  1  243.273988  1  12  7  6   -0.4628     200AT*
   C    1.339940  1  112.908862  1  260.351472  1  20 12  7    0.4393     200AU*
   C    1.425528  1  113.350727  1  175.918257  1  21 20 12   -0.3616     200AV*
   C    1.375925  1  118.275707  1  188.426905  1  22 21 20    0.0335     200AW*
   C    1.422092  1  121.030870  1  359.548838  1  23 22 21   -0.3174     200AX*
   C    1.378915  1  120.181044  1  355.538923  1  24 23 22    0.0292     200AY*
   C    1.429436  1  124.334508  1  355.243420  1  21 20 12   -0.3861     200B@*
   H    1.087599  1  118.951522  1    7.469788  1  22 21 20    0.1868     200BA*
   H    1.092083  1  120.241503  1  179.364306  1  23 22 21    0.1376     200BB*
   H    1.087498  1  118.774319  1  176.805160  1  24 23 22    0.1631     200BC*
   H    1.092160  1  120.371285  1  183.081947  1  25 24 23    0.1388     200BD*
   C    1.534554  1  117.097920  1  308.162943  1  26 21 20   -0.2335     200BE*
   H    1.754413  1  104.445940  1   51.447942  1  26 21 20    0.3828     200BF*
   C    1.508643  1  111.805033  1  346.310785  1  31 26 21   -0.1050     200BG*
   H    1.122020  1  107.970190  1  228.553051  1  31 26 21    0.1529     200BH*
   H    1.117373  1  111.741602  1  110.780590  1  31 26 21    0.1598     200BI*
   C    1.331880  1  123.256953  1  118.125831  1  33 31 26   -0.3644     200BJ*
   H    1.092423  1  114.792650  1  297.731440  1  33 31 26    0.1427     200BK*
   H    1.090182  1  122.836244  1  359.007297  1  36 33 31    0.1615     200BL*
   H    1.088364  1  122.185113  1  179.102221  1  36 33 31    0.1558     200BM*
   H    1.091515  1  119.479822  1  175.393112  1   6  5  4    0.1482     200BN*


     POINT   POTENTIAL  +  ENERGY LOST   =   TOTAL      ERROR    REF%   MOVEMENT
     201       0.34318     16.71514         17.05831  -0.80798   201   %  1.2650
     202       0.28494     16.77357         17.05851  -0.80778   202   %  1.2687
     203       0.22662     16.83208         17.05870  -0.80759   203   %  1.2725
     204       0.16821     16.89069         17.05890  -0.80739   204   %  1.2763
     205       0.10970     16.94939         17.05909  -0.80720   205   %  1.2801
     206       0.05108     17.00820         17.05929  -0.80700   206   %  1.2840
     207      -0.00765     17.06713         17.05948  -0.80681   207   %  1.2878
     208      -0.06650     17.12618         17.05968  -0.80661   208   %  1.2917
     209      -0.12548     17.18535         17.05987  -0.80642   209   %  1.2957
     210      -0.18460     17.24466         17.06007  -0.80622   210   %  1.2997
     211      -0.24385     17.30412         17.06026  -0.80603   211   %  1.3037
     212      -0.30326     17.36372         17.06046  -0.80583   212   %  1.3077
     213      -0.36282     17.42347         17.06065  -0.80564   213   %  1.3117
     214      -0.42255     17.48339         17.06085  -0.80544   214   %  1.3158
     215      -0.48244     17.54348         17.06104  -0.80525   215   %  1.3200
     216      -0.54250     17.60373         17.06124  -0.80505   216   %  1.3241
     217      -0.60274     17.66417         17.06143  -0.80486   217   %  1.3283
     218      -0.66316     17.72478         17.06162  -0.80466   218   %  1.3325
     219      -0.72377     17.78559         17.06182  -0.80447   219   %  1.3368
     220      -0.78457     17.84658         17.06201  -0.80428   220   %  1.3411
     221      -0.84556     17.90777         17.06221  -0.80408   221   %  1.3454
     222      -0.90675     17.96915         17.06240  -0.80389   222   %  1.3498
     223      -0.96814     18.03073         17.06260  -0.80369   223   %  1.3542
     224      -1.02973     18.09252         17.06279  -0.80350   224   %  1.3586
     225      -1.09152     18.15451         17.06299  -0.80330   225   %  1.3631
     226      -1.15352     18.21670         17.06318  -0.80311   226   %  1.3676
     227      -1.21573     18.27910         17.06338  -0.80291   227   %  1.3722
     228      -1.27814     18.34171         17.06357  -0.80272   228   %  1.3768
     229      -1.34076     18.40452         17.06376  -0.80252   229   %  1.3814
     230      -1.40358     18.46754         17.06396  -0.80233   230   %  1.3861
     231      -1.46661     18.53076         17.06415  -0.80214   231   %  1.3908
     232      -1.52984     18.59419         17.06435  -0.80194   232   %  1.3955
     233      -1.59327     18.65781         17.06454  -0.80175   233   %  1.4003
     234      -1.65690     18.72164         17.06474  -0.80155   234   %  1.4051
     235      -1.72072     18.78565         17.06493  -0.80136   235   %  1.4100
     236      -1.78473     18.84986         17.06513  -0.80116   236   %  1.4149
     237      -1.84893     18.91426         17.06532  -0.80097   237   %  1.4198
     238      -1.91332     18.97883         17.06552  -0.80077   238   %  1.4248
     239      -1.97788     19.04359         17.06571  -0.80058   239   %  1.4298
     240      -2.04261     19.10852         17.06591  -0.80038   240   %  1.4348
     241      -2.10751     19.17361         17.06610  -0.80019   241   %  1.4399
     242      -2.17257     19.23887         17.06630  -0.79999   242   %  1.4451
     243      -2.23778     19.30427         17.06649  -0.79980   243   %  1.4502
     244      -2.30315     19.36983         17.06669  -0.79960   244   %  1.4554
     245      -2.36865     19.43553         17.06688  -0.79941   245   %  1.4607
     246      -2.43429     19.50137         17.06708  -0.79921   246   %  1.4660
     247      -2.50005     19.56733         17.06727  -0.79902   247   %  1.4713
     248      -2.56594     19.63341         17.06747  -0.79882   248   %  1.4766
     249      -2.63194     19.69960         17.06766  -0.79863   249   %  1.4820
     250      -2.69804     19.76590         17.06786  -0.79843   250   %  1.4875
     251      -2.76424     19.83230         17.06805  -0.79824   251   %  1.4930
     252      -2.83054     19.89879         17.06825  -0.79804   252   %  1.4985
     253      -2.89691     19.96536         17.06844  -0.79784   253   %  1.5040
     254      -2.96336     20.03200         17.06864  -0.79765   254   %  1.5096
     255      -3.02988     20.09872         17.06883  -0.79745   255   %  1.5152
     256      -3.09646     20.16549         17.06903  -0.79726   256   %  1.5209
     257      -3.16309     20.23232         17.06923  -0.79706   257   %  1.5266
     258      -3.22977     20.29919         17.06942  -0.79687   258   %  1.5323
     259      -3.29648     20.36610         17.06962  -0.79667   259   %  1.5381
     260      -3.36323     20.43305         17.06981  -0.79648   260   %  1.5439
     261      -3.43000     20.50001         17.07001  -0.79628   261   %  1.5497
     262      -3.49679     20.56700         17.07020  -0.79608   262   %  1.5556
     263      -3.56360     20.63400         17.07040  -0.79589   263   %  1.5615
     264      -3.63040     20.70100         17.07060  -0.79569   264   %  1.5675
     265      -3.69721     20.76800         17.07079  -0.79550   265   %  1.5735
     266      -3.76400     20.83499         17.07099  -0.79530   266   %  1.5795
     267      -3.83079     20.90197         17.07118  -0.79510   267   %  1.5856
     268      -3.89755     20.96893         17.07138  -0.79491   268   %  1.5917
     269      -3.96429     21.03587         17.07158  -0.79471   269   %  1.5978
     270      -4.03100     21.10277         17.07177  -0.79452   270   %  1.6040
     271      -4.09767     21.16964         17.07197  -0.79432   271   %  1.6102
     272      -4.16430     21.23646         17.07216  -0.79412   272   %  1.6165
     273      -4.23088     21.30324         17.07236  -0.79393   273   %  1.6228
     274      -4.29742     21.36997         17.07256  -0.79373   274   %  1.6291
     275      -4.36389     21.43664         17.07275  -0.79354   275   %  1.6355
     276      -4.43031     21.50326         17.07295  -0.79334   276   %  1.6419
     277      -4.49666     21.56980         17.07315  -0.79314   277   %  1.6483
     278      -4.56294     21.63628         17.07334  -0.79295   278   %  1.6548
     279      -4.62915     21.70268         17.07354  -0.79275   279   %  1.6613
     280      -4.69528     21.76901         17.07373  -0.79255   280   %  1.6678
     281      -4.76132     21.83525         17.07393  -0.79236   281   %  1.6744
     282      -4.82729     21.90141         17.07413  -0.79216   282   %  1.6811
     283      -4.89316     21.96748         17.07432  -0.79197   283   %  1.6877
     284      -4.95894     22.03346         17.07452  -0.79177   284   %  1.6944
     285      -5.02462     22.09934         17.07472  -0.79157   285   %  1.7012
     286      -5.09021     22.16512         17.07491  -0.79138   286   %  1.7079
     287      -5.15569     22.23080         17.07511  -0.79118   287   %  1.7148
     288      -5.22107     22.29637         17.07530  -0.79098   288   %  1.7216
     289      -5.28634     22.36184         17.07550  -0.79079   289   %  1.7285
     290      -5.35150     22.42719         17.07570  -0.79059   290   %  1.7355
     291      -5.41654     22.49243         17.07589  -0.79040   291   %  1.7424
     292      -5.48147     22.55755         17.07609  -0.79020   292   %  1.7495
     293      -5.54627     22.62256         17.07629  -0.79000   293   %  1.7565
     294      -5.61096     22.68744         17.07648  -0.78981   294   %  1.7636
     295      -5.67552     22.75220         17.07668  -0.78961   295   %  1.7707
     296      -5.73996     22.81683         17.07687  -0.78941   296   %  1.7779
     297      -5.80427     22.88134         17.07707  -0.78922   297   %  1.7851
     298      -5.86844     22.94571         17.07727  -0.78902   298   %  1.7924
     299      -5.93249     23.00996         17.07746  -0.78882   299   %  1.7997
     300      -5.99640     23.07406         17.07766  -0.78863   300   %  1.8070


          FINAL GEOMETRY OBTAINED                                 CHARGE
 PM6-D3H4 CHARGE=0 IRC=1 LARGE=100 LET CYCLES=10000
 (irc)

   O    0.000000  0    0.000000  0    0.000000  0   0  0  0   -0.5273     300AA*
   C    1.368301  1    0.000000  0    0.000000  0   1  0  0    0.3014     300AB*
   C    1.406619  1  116.317690  1    0.000000  0   2  1  0   -0.2779     300AC*
   C    1.392249  1  118.953328  1  172.627170  1   3  2  1   -0.0741     300AD*
   C    1.401489  1  120.343207  1  359.834519  1   4  3  2   -0.2159     300AE*
   C    1.393732  1  119.854087  1    4.614736  1   5  4  3   -0.1068     300AF*
   C    1.406198  1  121.293940  1  357.590427  1   6  5  4   -0.1621     300AG*
   H    1.088308  1  119.272175  1  352.563802  1   3  2  1    0.1787     300AH*
   H    1.090155  1  119.845342  1  180.326267  1   4  3  2    0.1456     300AI*
   H    1.088189  1  120.014815  1  182.595803  1   5  4  3    0.1557     300AJ*
   C    1.506712  1  117.710158  1  165.099701  1   7  6  5   -0.2643     300AK*
   H    2.071697  1   91.634627  1  264.306053  1   7  6  5    0.3482     300AL*
   C    1.501203  1  116.034933  1  173.063726  1  11  7  6   -0.1109     300AM*
   H    1.120427  1  109.638149  1   47.639015  1  11  7  6    0.1620     300AN*
   H    1.128034  1  105.659421  1  291.134505  1  11  7  6    0.1620     300AO*
   C    1.331514  1  123.845979  1  233.979963  1  13 11  7   -0.3539     300AP*
   H    1.096877  1  114.516520  1   55.894022  1  13 11  7    0.1549     300AQ*
   H    1.088693  1  122.984662  1    1.274295  1  16 13 11    0.1579     300AR*
   H    1.088469  1  121.964495  1  180.688137  1  16 13 11    0.1539     300AS*
   O    1.003214  1  127.118620  1  242.851975  1  12  7  6   -0.4707     300AT*
   C    1.354699  1  112.293342  1  258.920170  1  20 12  7    0.3917     300AU*
   C    1.413599  1  113.105349  1  180.481157  1  21 20 12   -0.3361     300AV*
   C    1.382585  1  118.134509  1  187.713612  1  22 21 20    0.0008     300AW*
   C    1.411751  1  120.740167  1    0.856412  1  23 22 21   -0.2892     300AX*
   C    1.387203  1  120.182440  1  354.432587  1  24 23 22   -0.0087     300AY*
   C    1.417044  1  124.899666  1  357.845175  1  21 20 12   -0.3163     300B@*
   H    1.087194  1  119.064418  1    7.642036  1  22 21 20    0.1840     300BA*
   H    1.091041  1  119.994435  1  180.550046  1  23 22 21    0.1388     300BB*
   H    1.087301  1  119.250961  1  176.359637  1  24 23 22    0.1597     300BC*
   H    1.091241  1  120.202589  1  183.632333  1  25 24 23    0.1418     300BD*
   C    1.519773  1  118.763088  1  313.201243  1  26 21 20   -0.2483     300BE*
   H    1.913011  1  100.679162  1   54.784768  1  26 21 20    0.3629     300BF*
   C    1.510703  1  110.652654  1  342.056651  1  31 26 21   -0.0963     300BG*
   H    1.124241  1  107.430877  1  225.772163  1  31 26 21    0.1559     300BH*
   H    1.115422  1  113.242403  1  107.567293  1  31 26 21    0.1629     300BI*
   C    1.331517  1  123.265274  1  120.263101  1  33 31 26   -0.3720     300BJ*
   H    1.092651  1  114.704766  1  300.376623  1  33 31 26    0.1435     300BK*
   H    1.089797  1  122.827952  1  359.496979  1  36 33 31    0.1612     300BL*
   H    1.088298  1  122.190821  1  179.425081  1  36 33 31    0.1565     300BM*
   H    1.091234  1  119.516042  1  175.813938  1   6  5  4    0.1510     300BN*


     POINT   POTENTIAL  +  ENERGY LOST   =   TOTAL      ERROR    REF%   MOVEMENT
     301      -6.06018     23.13804         17.07786  -0.78843   301   %  1.8144
     302      -6.12382     23.20187         17.07805  -0.78824   302   %  1.8218
     303      -6.18732     23.26557         17.07825  -0.78804   303   %  1.8293
     304      -6.25068     23.32913         17.07845  -0.78784   304   %  1.8368
     305      -6.31391     23.39255         17.07864  -0.78765   305   %  1.8443
     306      -6.37698     23.45582         17.07884  -0.78745   306   %  1.8519
     307      -6.43992     23.51895         17.07904  -0.78725   307   %  1.8595
     308      -6.50271     23.58194         17.07923  -0.78706   308   %  1.8672
     309      -6.56535     23.64478         17.07943  -0.78686   309   %  1.8749
     310      -6.62785     23.70748         17.07962  -0.78666   310   %  1.8827
     311      -6.69020     23.77002         17.07982  -0.78647   311   %  1.8905
     312      -6.75241     23.83242         17.08002  -0.78627   312   %  1.8984
     313      -6.81446     23.89467         17.08021  -0.78608   313   %  1.9062
     314      -6.87637     23.95678         17.08041  -0.78588   314   %  1.9142
     315      -6.93812     24.01873         17.08061  -0.78568   315   %  1.9222
     316      -6.99973     24.08053         17.08080  -0.78549   316   %  1.9302
     317      -7.06119     24.14219         17.08100  -0.78529   317   %  1.9383
     318      -7.12250     24.20369         17.08120  -0.78509   318   %  1.9464
     319      -7.18365     24.26505         17.08139  -0.78490   319   %  1.9545
     320      -7.24466     24.32625         17.08159  -0.78470   320   %  1.9628
     321      -7.30552     24.38730         17.08178  -0.78450   321   %  1.9710
     322      -7.36622     24.44821         17.08198  -0.78431   322   %  1.9793
     323      -7.42678     24.50896         17.08218  -0.78411   323   %  1.9877
     324      -7.48719     24.56956         17.08237  -0.78392   324   %  1.9961
     325      -7.54745     24.63002         17.08257  -0.78372   325   %  2.0045
     326      -7.60756     24.69032         17.08277  -0.78352   326   %  2.0130
     327      -7.66752     24.75048         17.08296  -0.78333   327   %  2.0216
     328      -7.72733     24.81049         17.08316  -0.78313   328   %  2.0302
     329      -7.78700     24.87036         17.08335  -0.78293   329   %  2.0388
     330      -7.84652     24.93007         17.08355  -0.78274   330   %  2.0475
     331      -7.90590     24.98965         17.08375  -0.78254   331   %  2.0563
     332      -7.96513     25.04907         17.08394  -0.78235   332   %  2.0651
     333      -8.02422     25.10836         17.08414  -0.78215   333   %  2.0739
     334      -8.08316     25.16750         17.08434  -0.78195   334   %  2.0828
     335      -8.14197     25.22650         17.08453  -0.78176   335   %  2.0918
     336      -8.20063     25.28536         17.08473  -0.78156   336   %  2.1008
     337      -8.25916     25.34408         17.08492  -0.78137   337   %  2.1099
     338      -8.31754     25.40266         17.08512  -0.78117   338   %  2.1190
     339      -8.37579     25.46111         17.08532  -0.78097   339   %  2.1282
     340      -8.43391     25.51942         17.08551  -0.78078   340   %  2.1374
     341      -8.49189     25.57760         17.08571  -0.78058   341   %  2.1467
     342      -8.54974     25.63564         17.08590  -0.78038   342   %  2.1561
     343      -8.60746     25.69356         17.08610  -0.78019   343   %  2.1655
     344      -8.66504     25.75134         17.08630  -0.77999   344   %  2.1750
     345      -8.72251     25.80900         17.08649  -0.77980   345   %  2.1845
     346      -8.77984     25.86653         17.08669  -0.77960   346   %  2.1941
     347      -8.83706     25.92394         17.08688  -0.77941   347   %  2.2037
     348      -8.89415     25.98122         17.08708  -0.77921   348   %  2.2134
     349      -8.95112     26.03839         17.08728  -0.77901   349   %  2.2232
     350      -9.00797     26.09544         17.08747  -0.77882   350   %  2.2330
     351      -9.06470     26.15237         17.08767  -0.77862   351   %  2.2429
     352      -9.12133     26.20919         17.08786  -0.77843   352   %  2.2529
     353      -9.17784     26.26590         17.08806  -0.77823   353   %  2.2629
     354      -9.23424     26.32249         17.08825  -0.77803   354   %  2.2730
     355      -9.29053     26.37898         17.08845  -0.77784   355   %  2.2831
     356      -9.34672     26.43537         17.08865  -0.77764   356   %  2.2934
     357      -9.40281     26.49165         17.08884  -0.77745   357   %  2.3036
     358      -9.45880     26.54783         17.08904  -0.77725   358   %  2.3140
     359      -9.51469     26.60392         17.08923  -0.77706   359   %  2.3244
     360      -9.57048     26.65991         17.08943  -0.77686   360   %  2.3349
     361      -9.62618     26.71581         17.08962  -0.77666   361   %  2.3455
     362      -9.68180     26.77162         17.08982  -0.77647   362   %  2.3561
     363      -9.73732     26.82734         17.09002  -0.77627   363   %  2.3668
     364      -9.79276     26.88297         17.09021  -0.77608   364   %  2.3776
     365      -9.84812     26.93853         17.09041  -0.77588   365   %  2.3884
     366      -9.90341     26.99401         17.09060  -0.77569   366   %  2.3993
     367      -9.95861     27.04941         17.09080  -0.77549   367   %  2.4103
     368     -10.01375     27.10474         17.09099  -0.77530   368   %  2.4214
     369     -10.06881     27.16000         17.09119  -0.77510   369   %  2.4326
     370     -10.12381     27.21519         17.09138  -0.77491   370   %  2.4438
     371     -10.17874     27.27032         17.09158  -0.77471   371   %  2.4551
     372     -10.23362     27.32539         17.09177  -0.77451   372   %  2.4665
     373     -10.28844     27.38041         17.09197  -0.77432   373   %  2.4779
     374     -10.34321     27.43537         17.09216  -0.77412   374   %  2.4895
     375     -10.39792     27.49028         17.09236  -0.77393   375   %  2.5011
     376     -10.45259     27.54515         17.09255  -0.77373   376   %  2.5128
     377     -10.50722     27.59997         17.09275  -0.77354   377   %  2.5246
     378     -10.56181     27.65475         17.09294  -0.77334   378   %  2.5365
     379     -10.61636     27.70950         17.09314  -0.77315   379   %  2.5485
     380     -10.67088     27.76422         17.09333  -0.77295   380   %  2.5605
     381     -10.72538     27.81891         17.09353  -0.77276   381   %  2.5727
     382     -10.77985     27.87357         17.09372  -0.77256   382   %  2.5849
     383     -10.83430     27.92822         17.09392  -0.77237   383   %  2.5972
     384     -10.88873     27.98285         17.09411  -0.77217   384   %  2.6097
     385     -10.94316     28.03747         17.09431  -0.77198   385   %  2.6222
     386     -10.99757     28.09208         17.09450  -0.77178   386   %  2.6348
     387     -11.05198     28.14668         17.09470  -0.77159   387   %  2.6475
     388     -11.10640     28.20129         17.09489  -0.77140   388   %  2.6603
     389     -11.16081     28.25590         17.09509  -0.77120   389   %  2.6732
     390     -11.21524     28.31052         17.09528  -0.77101   390   %  2.6862
     391     -11.26968     28.36516         17.09548  -0.77081   391   %  2.6993
     392     -11.32414     28.41981         17.09567  -0.77062   392   %  2.7126
     393     -11.37862     28.47449         17.09587  -0.77042   393   %  2.7259
     394     -11.43313     28.52920         17.09606  -0.77023   394   %  2.7393
     395     -11.48768     28.58393         17.09626  -0.77003   395   %  2.7529
     396     -11.54226     28.63871         17.09645  -0.76984   396   %  2.7665
     397     -11.59688     28.69353         17.09664  -0.76964   397   %  2.7803
     398     -11.65155     28.74839         17.09684  -0.76945   398   %  2.7942
     399     -11.70628     28.80331         17.09703  -0.76926   399   %  2.8082
     400     -11.76106     28.85829         17.09723  -0.76906   400   %  2.8223


          FINAL GEOMETRY OBTAINED                                 CHARGE
 PM6-D3H4 CHARGE=0 IRC=1 LARGE=100 LET CYCLES=10000
 (irc)

   O    0.000000  0    0.000000  0    0.000000  0   0  0  0   -0.5103     400AA*
   C    1.376653  1    0.000000  0    0.000000  0   1  0  0    0.2827     400AB*
   C    1.405028  1  115.129397  1    0.000000  0   2  1  0   -0.2713     400AC*
   C    1.392842  1  118.872783  1  173.452586  1   3  2  1   -0.0798     400AD*
   C    1.400617  1  120.161003  1  359.001375  1   4  3  2   -0.2113     400AE*
   C    1.395327  1  120.075790  1    5.215597  1   5  4  3   -0.1144     400AF*
   C    1.405801  1  121.114358  1  358.440409  1   6  5  4   -0.1398     400AG*
   H    1.088445  1  119.239206  1  353.630630  1   3  2  1    0.1783     400AH*
   H    1.089893  1  119.841616  1  179.863694  1   4  3  2    0.1462     400AI*
   H    1.088343  1  119.963097  1  183.504764  1   5  4  3    0.1550     400AJ*
   C    1.504791  1  118.126152  1  166.884142  1   7  6  5   -0.2670     400AK*
   H    2.216727  1   89.348259  1  265.519612  1   7  6  5    0.3451     400AL*
   C    1.501270  1  116.642350  1  172.363953  1  11  7  6   -0.1241     400AM*
   H    1.121930  1  108.997828  1   47.522046  1  11  7  6    0.1653     400AN*
   H    1.127616  1  106.071422  1  291.012618  1  11  7  6    0.1623     400AO*
   C    1.331808  1  123.662645  1  233.262469  1  13 11  7   -0.3408     400AP*
   H    1.096693  1  114.669704  1   56.676482  1  13 11  7    0.1520     400AQ*
   H    1.089355  1  122.890932  1    1.849423  1  16 13 11    0.1594     400AR*
   H    1.088622  1  122.089335  1  180.913499  1  16 13 11    0.1537     400AS*
   O    1.001289  1  118.458316  1  241.369137  1  12  7  6   -0.4761     400AT*
   C    1.362326  1  112.327990  1  257.188152  1  20 12  7    0.3497     400AU*
   C    1.406061  1  113.651217  1  186.101371  1  21 20 12   -0.3138     400AV*
   C    1.387938  1  118.292347  1  186.867770  1  22 21 20   -0.0275     400AW*
   C    1.405351  1  120.519918  1    3.818966  1  23 22 21   -0.2625     400AX*
   C    1.391727  1  120.121125  1  351.769653  1  24 23 22   -0.0465     400AY*
   C    1.414953  1  125.229469  1    2.399205  1  21 20 12   -0.2483     400B@*
   H    1.087131  1  119.091936  1    7.661357  1  22 21 20    0.1809     400BA*
   H    1.090236  1  119.801378  1  182.921615  1  23 22 21    0.1401     400BB*
   H    1.087258  1  119.670581  1  174.462752  1  24 23 22    0.1569     400BC*
   H    1.090295  1  120.378704  1  183.805514  1  25 24 23    0.1450     400BD*
   C    1.506871  1  120.515783  1  320.179090  1  26 21 20   -0.2673     400BE*
   H    2.120105  1   96.383701  1   58.821741  1  26 21 20    0.3533     400BF*
   C    1.508340  1  108.852342  1  335.867143  1  31 26 21   -0.0894     400BG*
   H    1.124611  1  108.018965  1  219.932641  1  31 26 21    0.1598     400BH*
   H    1.115080  1  113.414790  1  101.392244  1  31 26 21    0.1687     400BI*
   C    1.330696  1  123.484805  1  123.187053  1  33 31 26   -0.3800     400BJ*
   H    1.093440  1  114.464292  1  303.958569  1  33 31 26    0.1443     400BK*
   H    1.089799  1  122.845207  1    0.489913  1  36 33 31    0.1622     400BL*
   H    1.088289  1  122.137952  1  180.015654  1  36 33 31    0.1574     400BM*
   H    1.090919  1  119.528004  1  176.589767  1   6  5  4    0.1518     400BN*


     POINT   POTENTIAL  +  ENERGY LOST   =   TOTAL      ERROR    REF%   MOVEMENT
     401     -11.81590     28.91333         17.09742  -0.76887   401   %  2.8365
     402     -11.87082     28.96843         17.09762  -0.76867   402   %  2.8509
     403     -11.92581     29.02362         17.09781  -0.76848   403   %  2.8654
     404     -11.98087     29.07888         17.09800  -0.76828   404   %  2.8800
     405     -12.03602     29.13422         17.09820  -0.76809   405   %  2.8947
     406     -12.09127     29.18966         17.09839  -0.76790   406   %  2.9096
     407     -12.14661     29.24519         17.09859  -0.76770   407   %  2.9246
     408     -12.20205     29.30083         17.09878  -0.76751   408   %  2.9397
     409     -12.25760     29.35657         17.09897  -0.76731   409   %  2.9550
     410     -12.31326     29.41243         17.09917  -0.76712   410   %  2.9705
     411     -12.36905     29.46841         17.09936  -0.76693   411   %  2.9860
     412     -12.42496     29.52451         17.09956  -0.76673   412   %  3.0018
     413     -12.48100     29.58075         17.09975  -0.76654   413   %  3.0176
     414     -12.53719     29.63713         17.09994  -0.76635   414   %  3.0337
     415     -12.59351     29.69365         17.10014  -0.76615   415   %  3.0499
     416     -12.65000     29.75033         17.10033  -0.76596   416   %  3.0662
     417     -12.70664     29.80716         17.10052  -0.76576   417   %  3.0827
     418     -12.76345     29.86416         17.10072  -0.76557   418   %  3.0994
     419     -12.82043     29.92134         17.10091  -0.76538   419   %  3.1163
     420     -12.87759     29.97869         17.10110  -0.76518   420   %  3.1333
     421     -12.93493     30.03623         17.10130  -0.76499   421   %  3.1506
     422     -12.99247     30.09396         17.10149  -0.76480   422   %  3.1680
     423     -13.05021     30.15190         17.10168  -0.76460   423   %  3.1856
     424     -13.10816     30.21004         17.10188  -0.76441   424   %  3.2034
     425     -13.16633     30.26840         17.10207  -0.76422   425   %  3.2214
     426     -13.22471     30.32698         17.10226  -0.76402   426   %  3.2396
     427     -13.28333     30.38578         17.10246  -0.76383   427   %  3.2581
     428     -13.34218     30.44483         17.10265  -0.76364   428   %  3.2767
     429     -13.40128     30.50412         17.10284  -0.76345   429   %  3.2956
     430     -13.46063     30.56366         17.10304  -0.76325   430   %  3.3148
     431     -13.52024     30.62346         17.10323  -0.76306   431   %  3.3342
     432     -13.58011     30.68353         17.10342  -0.76287   432   %  3.3538
     433     -13.64026     30.74387         17.10362  -0.76267   433   %  3.3737
     434     -13.70069     30.80450         17.10381  -0.76248   434   %  3.3938
     435     -13.76141     30.86541         17.10400  -0.76229   435   %  3.4143
     436     -13.82242     30.92662         17.10419  -0.76209   436   %  3.4350
     437     -13.88374     30.98812         17.10439  -0.76190   437   %  3.4560
     438     -13.94536     31.04994         17.10458  -0.76171   438   %  3.4773
     439     -14.00731     31.11208         17.10477  -0.76152   439   %  3.4989
     440     -14.06957     31.17453         17.10496  -0.76132   440   %  3.5209
     441     -14.13216     31.23732         17.10516  -0.76113   441   %  3.5431
     442     -14.19509     31.30044         17.10535  -0.76094   442   %  3.5657
     443     -14.25836     31.36390         17.10554  -0.76075   443   %  3.5886
     444     -14.32198     31.42771         17.10574  -0.76055   444   %  3.6119
     445     -14.38594     31.49187         17.10593  -0.76036   445   %  3.6355
     446     -14.45027     31.55639         17.10612  -0.76017   446   %  3.6594
     447     -14.51495     31.62126         17.10631  -0.75998   447   %  3.6837
     448     -14.58000     31.68651         17.10651  -0.75978   448   %  3.7084
     449     -14.64542     31.75211         17.10670  -0.75959   449   %  3.7334
     450     -14.71120     31.81809         17.10689  -0.75940   450   %  3.7587
     451     -14.77736     31.88444         17.10708  -0.75920   451   %  3.7845
     452     -14.84389     31.95117         17.10728  -0.75901   452   %  3.8106
     453     -14.91080     32.01827         17.10747  -0.75882   453   %  3.8370
     454     -14.97808     32.08575         17.10766  -0.75863   454   %  3.8639
     455     -15.04574     32.15360         17.10785  -0.75843   455   %  3.8911
     456     -15.11377     32.22182         17.10805  -0.75824   456   %  3.9186
     457     -15.18217     32.29041         17.10824  -0.75805   457   %  3.9466
     458     -15.25093     32.35937         17.10843  -0.75786   458   %  3.9749
     459     -15.32006     32.42869         17.10863  -0.75766   459   %  4.0036
     460     -15.38954     32.49836         17.10882  -0.75747   460   %  4.0327
     461     -15.45938     32.56839         17.10901  -0.75728   461   %  4.0622
     462     -15.52955     32.63876         17.10920  -0.75708   462   %  4.0921
     463     -15.60006     32.70946         17.10940  -0.75689   463   %  4.1223
     464     -15.67090     32.78049         17.10959  -0.75670   464   %  4.1530
     465     -15.74205     32.85183         17.10978  -0.75650   465   %  4.1840
     466     -15.81350     32.92348         17.10998  -0.75631   466   %  4.2155
     467     -15.88524     32.99541         17.11017  -0.75612   467   %  4.2473
     468     -15.95726     33.06762         17.11036  -0.75592   468   %  4.2796
     469     -16.02954     33.14009         17.11056  -0.75573   469   %  4.3123
     470     -16.10206     33.21281         17.11075  -0.75554   470   %  4.3455
     471     -16.17482     33.28576         17.11094  -0.75534   471   %  4.3790
     472     -16.24778     33.35892         17.11114  -0.75515   472   %  4.4129
     473     -16.32094     33.43228         17.11133  -0.75496   473   %  4.4473
     474     -16.39428     33.50581         17.11153  -0.75476   474   %  4.4819
     475     -16.46778     33.57950         17.11172  -0.75457   475   %  4.5170
     476     -16.54141     33.65333         17.11192  -0.75437   476   %  4.5524
     477     -16.61516     33.72727         17.11211  -0.75418   477   %  4.5881
     478     -16.68901     33.80132         17.11230  -0.75398   478   %  4.6241
     479     -16.76294     33.87544         17.11250  -0.75379   479   %  4.6605
     480     -16.83693     33.94962         17.11269  -0.75360   480   %  4.6971
     481     -16.91095     34.02384         17.11289  -0.75340   481   %  4.7340
     482     -16.98499     34.09807         17.11308  -0.75321   482   %  4.7711
     483     -17.05902     34.17230         17.11328  -0.75301   483   %  4.8085
     484     -17.13303     34.24650         17.11347  -0.75282   484   %  4.8462
     485     -17.20700     34.32066         17.11367  -0.75262   485   %  4.8840
     486     -17.28090     34.39477         17.11386  -0.75243   486   %  4.9221
     487     -17.35473     34.46878         17.11406  -0.75223   487   %  4.9604
     488     -17.42845     34.54271         17.11425  -0.75203   488   %  4.9989
     489     -17.50206     34.61651         17.11445  -0.75184   489   %  5.0376
     490     -17.57554     34.69018         17.11465  -0.75164   490   %  5.0764
     491     -17.64886     34.76370         17.11484  -0.75145   491   %  5.1155
     492     -17.72203     34.83706         17.11504  -0.75125   492   %  5.1546
     493     -17.79501     34.91024         17.11523  -0.75106   493   %  5.1940
     494     -17.86780     34.98323         17.11543  -0.75086   494   %  5.2335
     495     -17.94038     35.05601         17.11562  -0.75066   495   %  5.2731
     496     -18.01275     35.12857         17.11582  -0.75047   496   %  5.3128
     497     -18.08489     35.20090         17.11602  -0.75027   497   %  5.3527
     498     -18.15678     35.27299         17.11621  -0.75008   498   %  5.3927
     499     -18.22843     35.34484         17.11641  -0.74988   499   %  5.4328
     500     -18.29981     35.41642         17.11661  -0.74968   500   %  5.4730


          FINAL GEOMETRY OBTAINED                                 CHARGE
 PM6-D3H4 CHARGE=0 IRC=1 LARGE=100 LET CYCLES=10000
 (irc)

   O    0.000000  0    0.000000  0    0.000000  0   0  0  0   -0.5013     500AA*
   C    1.378756  1    0.000000  0    0.000000  0   1  0  0    0.2749     500AB*
   C    1.407503  1  113.776684  1    0.000000  0   2  1  0   -0.2687     500AC*
   C    1.390951  1  119.073844  1  173.601853  1   3  2  1   -0.0815     500AD*
   C    1.401374  1  119.863211  1  358.350067  1   4  3  2   -0.2108     500AE*
   C    1.394562  1  120.138973  1    5.091308  1   5  4  3   -0.1153     500AF*
   C    1.408076  1  121.468944  1  358.615639  1   6  5  4   -0.1292     500AG*
   H    1.088833  1  119.032614  1  353.797370  1   3  2  1    0.1782     500AH*
   H    1.089720  1  120.018454  1  179.406255  1   4  3  2    0.1466     500AI*
   H    1.088403  1  119.891875  1  183.799282  1   5  4  3    0.1549     500AJ*
   C    1.505233  1  117.649169  1  171.269163  1   7  6  5   -0.2718     500AK*
   H    2.382840  1   88.359180  1  267.594962  1   7  6  5    0.3439     500AL*
   C    1.501704  1  117.511964  1  174.575161  1  11  7  6   -0.1288     500AM*
   H    1.124475  1  107.972433  1   50.647290  1  11  7  6    0.1690     500AN*
   H    1.126481  1  106.738265  1  294.284661  1  11  7  6    0.1625     500AO*
   C    1.332493  1  123.147125  1  233.861112  1  13 11  7   -0.3351     500AP*
   H    1.095326  1  114.892131  1   57.468121  1  13 11  7    0.1485     500AQ*
   H    1.090011  1  122.772477  1    2.249467  1  16 13 11    0.1614     500AR*
   H    1.088496  1  122.288636  1  181.410419  1  16 13 11    0.1535     500AS*
   O    0.999223  1  113.909046  1  241.189629  1  12  7  6   -0.4819     500AT*
   C    1.367902  1  112.457090  1  255.903188  1  20 12  7    0.3257     500AU*
   C    1.404346  1  114.238490  1  184.717228  1  21 20 12   -0.3024     500AV*
   C    1.392000  1  118.435812  1  187.488029  1  22 21 20   -0.0427     500AW*
   C    1.401821  1  120.318123  1    5.593175  1  23 22 21   -0.2479     500AX*
   C    1.395496  1  119.953904  1  350.129645  1  24 23 22   -0.0690     500AY*
   C    1.415550  1  124.664419  1    3.495724  1  21 20 12   -0.1992     500B@*
   H    1.087053  1  119.327462  1    8.026380  1  22 21 20    0.1787     500BA*
   H    1.089848  1  119.754797  1  183.877148  1  23 22 21    0.1410     500BB*
   H    1.087204  1  119.937889  1  172.755681  1  24 23 22    0.1555     500BC*
   H    1.090116  1  120.046656  1  183.722551  1  25 24 23    0.1459     500BD*
   C    1.503829  1  121.492332  1  328.935243  1  26 21 20   -0.2845     500BE*
   H    2.383717  1   94.279057  1   61.901416  1  26 21 20    0.3468     500BF*
   C    1.506172  1  108.211547  1  327.789277  1  31 26 21   -0.0840     500BG*
   H    1.123211  1  109.051358  1  210.857794  1  31 26 21    0.1628     500BH*
   H    1.115269  1  112.721683  1   92.468199  1  31 26 21    0.1731     500BI*
   C    1.330720  1  124.165231  1  125.495726  1  33 31 26   -0.3850     500BJ*
   H    1.094322  1  114.054586  1  307.016106  1  33 31 26    0.1442     500BK*
   H    1.089519  1  123.037717  1    1.927267  1  36 33 31    0.1629     500BL*
   H    1.088565  1  121.934268  1  181.165626  1  36 33 31    0.1581     500BM*
   H    1.091171  1  119.329110  1  177.482736  1   6  5  4    0.1513     500BN*


     POINT   POTENTIAL  +  ENERGY LOST   =   TOTAL      ERROR    REF%   MOVEMENT
     501     -18.37093     35.48773         17.11680  -0.74949   501   %  5.5133
     502     -18.44177     35.55877         17.11700  -0.74929   502   %  5.5536
     503     -18.51233     35.62952         17.11719  -0.74909   503   %  5.5941
     504     -18.58260     35.69999         17.11739  -0.74890   504   %  5.6347
     505     -18.65257     35.77016         17.11759  -0.74870   505   %  5.6753
     506     -18.72224     35.84003         17.11778  -0.74850   506   %  5.7160
     507     -18.79161     35.90959         17.11798  -0.74831   507   %  5.7568
     508     -18.86067     35.97885         17.11818  -0.74811   508   %  5.7977
     509     -18.92942     36.04780         17.11837  -0.74791   509   %  5.8386
     510     -18.99786     36.11643         17.11857  -0.74772   510   %  5.8796
     511     -19.06598     36.18474         17.11877  -0.74752   511   %  5.9206
     512     -19.13378     36.25274         17.11896  -0.74733   512   %  5.9618
     513     -19.20126     36.32042         17.11916  -0.74713   513   %  6.0029
     514     -19.26842     36.38778         17.11936  -0.74693   514   %  6.0441
     515     -19.33526     36.45482         17.11955  -0.74674   515   %  6.0854
     516     -19.40179     36.52154         17.11975  -0.74654   516   %  6.1268
     517     -19.46799     36.58793         17.11995  -0.74634   517   %  6.1682
     518     -19.53387     36.65401         17.12014  -0.74615   518   %  6.2096
     519     -19.59943     36.71977         17.12034  -0.74595   519   %  6.2511
     520     -19.66468     36.78522         17.12054  -0.74575   520   %  6.2926
     521     -19.72962     36.85035         17.12073  -0.74556   521   %  6.3342
     522     -19.79424     36.91517         17.12093  -0.74536   522   %  6.3759
     523     -19.85854     36.97967         17.12113  -0.74516   523   %  6.4176
     524     -19.92255     37.04387         17.12132  -0.74497   524   %  6.4594
     525     -19.98623     37.10775         17.12152  -0.74477   525   %  6.5012
     526     -20.04964     37.17136         17.12172  -0.74457   526   %  6.5431
     527     -20.11270     37.23461         17.12191  -0.74438   527   %  6.5850
     528     -20.17552     37.29763         17.12211  -0.74418   528   %  6.6271
     529     -20.23785     37.36016         17.12231  -0.74398   529   %  6.6690
[...]
    6681     -30.64086     56.19203         25.55117   7.68488  6678   % 25.9979
    6682     -30.64096     56.19222         25.55126   7.68497  6679   % 26.0002
    6683     -30.63584     56.19384         25.55799   7.69171  6680   % 25.9990
    6684     -30.63881     56.21214         25.57333   7.70704  6681   % 26.0052
    6685     -30.63968     56.21310         25.57342   7.70713  6682   % 26.0048
    6686     -30.64046     56.21400         25.57354   7.70725  6683   % 26.0044
    6687     -30.64097     56.21461         25.57364   7.70736  6684   % 26.0040
    6688     -30.64125     56.21498         25.57373   7.70744  6685   % 26.0037
    6689     -30.64136     56.21513         25.57378   7.70749  6686   % 26.0036
    6690     -30.64139     56.21518         25.57379   7.70750  6687   % 26.0037
    6691     -30.64142     56.21521         25.57378   7.70750  6688   % 26.0040
    6692     -30.64147     56.21526         25.57378   7.70749  6689   % 26.0045
    6693     -30.64154     56.21532         25.57378   7.70749  6690   % 26.0053
    6694     -30.64163     56.21541         25.57378   7.70749  6691   % 26.0063
    6695     -30.64177     56.21554         25.57377   7.70748  6692   % 26.0077
    6696     -30.64192     56.21574         25.57381   7.70752  6693   % 26.0100
    6697     -30.63892     56.21674         25.57782   7.71153  6694   % 26.0100
    6698     -30.63566     56.23282         25.59716   7.73087  6695   % 26.0171
    6699     -30.63850     56.23605         25.59755   7.73126  6696   % 26.0162
    6700     -30.63972     56.23738         25.59766   7.73137  6697   % 26.0158
    6701     -30.64078     56.23858         25.59780   7.73151  6698   % 26.0153
    6702     -30.64152     56.23944         25.59792   7.73163  6699   % 26.0149
    6703     -30.64200     56.24002         25.59802   7.73173  6700   % 26.0145


          FINAL GEOMETRY OBTAINED                                 CHARGE
 PM6-D3H4 CHARGE=0 IRC=1 LARGE=100 LET CYCLES=10000
 (irc)

   O    0.000000  0    0.000000  0    0.000000  0   0  0  0   -0.4916    6700AA*
   C    1.374355  1    0.000000  0    0.000000  0   1  0  0    0.2878    6700AB*
   C    1.405660  1  113.205713  1    0.000000  0   2  1  0   -0.2884    6700AC*
   C    1.392585  1  118.888599  1  178.275515  1   3  2  1   -0.0631    6700AD*
   C    1.399405  1  120.078265  1    0.124700  1   4  3  2   -0.2292    6700AE*
   C    1.397397  1  120.267733  1    0.436934  1   5  4  3   -0.0865    6700AF*
   C    1.402336  1  121.352199  1  359.494990  1   6  5  4   -0.1353    6700AG*
   H    1.087919  1  119.197070  1  357.779787  1   3  2  1    0.1772    6700AH*
   H    1.089828  1  119.822285  1  180.104865  1   4  3  2    0.1432    6700AI*
   H    1.088030  1  119.918992  1  180.196124  1   5  4  3    0.1543    6700AJ*
   C    1.502800  1  120.189620  1  182.241560  1   7  6  5   -0.3023    6700AK*
   H    3.123186  1  105.221219  1  276.071594  1   7  6  5    0.3423    6700AL*
   C    1.502263  1  113.395854  1  229.519059  1  11  7  6   -0.0873    6700AM*
   H    1.127852  1  107.884813  1  105.845779  1  11  7  6    0.1849    6700AN*
   H    1.122506  1  110.040256  1  349.524102  1  11  7  6    0.1642    6700AO*
   C    1.332567  1  123.542706  1  229.162596  1  13 11  7   -0.3820    6700AP*
   H    1.094178  1  114.403965  1   49.627620  1  13 11  7    0.1441    6700AQ*
   H    1.089904  1  123.018002  1    0.496447  1  16 13 11    0.1636    6700AR*
   H    1.088786  1  122.044190  1  181.213352  1  16 13 11    0.1582    6700AS*
   O    0.995525  1   93.724099  1  237.505139  1  12  7  6   -0.4930    6700AT*
   C    1.374648  1  113.064203  1  251.587501  1  20 12  7    0.2874    6700AU*
   C    1.405373  1  113.219413  1  179.742850  1  21 20 12   -0.2880    6700AV*
   C    1.392700  1  118.873340  1  181.336752  1  22 21 20   -0.0627    6700AW*
   C    1.399353  1  120.098174  1  359.844010  1  23 22 21   -0.2287    6700AX*
   C    1.397525  1  120.254530  1  359.776884  1  24 23 22   -0.0863    6700AY*
   C    1.410884  1  124.467465  1    0.724678  1  21 20 12   -0.1341    6700B@*
   H    1.087833  1  119.215339  1    1.875709  1  22 21 20    0.1769    6700BA*
   H    1.089766  1  119.809354  1  179.908373  1  23 22 21    0.1431    6700BB*
   H    1.088017  1  119.931991  1  179.930727  1  24 23 22    0.1543    6700BC*
   H    1.090600  1  119.164394  1  180.128680  1  25 24 23    0.1458    6700BD*
   C    1.502888  1  122.636083  1    1.243276  1  26 21 20   -0.3012    6700BE*
   H    3.166089  1   76.189657  1   77.437842  1  26 21 20    0.3422    6700BF*
   C    1.502412  1  113.448431  1  307.883142  1  31 26 21   -0.0884    6700BG*
   H    1.122184  1  110.031092  1  187.857076  1  31 26 21    0.1641    6700BH*
   H    1.127299  1  107.751640  1   71.587058  1  31 26 21    0.1839    6700BI*
   C    1.332625  1  123.551873  1  130.749096  1  33 31 26   -0.3819    6700BJ*
   H    1.093150  1  114.385910  1  310.273968  1  33 31 26    0.1441    6700BK*
   H    1.090353  1  123.012804  1  359.501585  1  36 33 31    0.1645    6700BL*
   H    1.088664  1  122.052535  1  178.779868  1  36 33 31    0.1581    6700BM*
   H    1.090499  1  119.176136  1  179.717560  1   6  5  4    0.1458    6700BN*


     POINT   POTENTIAL  +  ENERGY LOST   =   TOTAL      ERROR    REF%   MOVEMENT
    6704     -30.64225     56.24035         25.59810   7.73181  6701   % 26.0142
    6705     -30.64234     56.24048         25.59814   7.73185  6702   % 26.0141
    6706     -30.64238     56.24052         25.59814   7.73185  6703   % 26.0143
    6707     -30.64241     56.24055         25.59814   7.73185  6704   % 26.0147
    6708     -30.64246     56.24060         25.59814   7.73185  6705   % 26.0152
    6709     -30.64253     56.24067         25.59814   7.73185  6706   % 26.0160
    6710     -30.64263     56.24077         25.59813   7.73185  6707   % 26.0171
    6711     -30.64278     56.24091         25.59813   7.73184  6708   % 26.0186
    6712     -30.64295     56.24111         25.59815   7.73186  6709   % 26.0205
    6713     -30.64045     56.24197         25.60152   7.73523  6710   % 26.0263
    6714     -30.63428     56.25768         25.62340   7.75711  6711   % 26.0203
    6715     -30.63851     56.26258         25.62407   7.75778  6712   % 26.0215
    6716     -30.63984     56.26401         25.62418   7.75789  6713   % 26.0220
    6717     -30.64110     56.26543         25.62432   7.75803  6714   % 26.0226
    6718     -30.64204     56.26649         25.62445   7.75816  6715   % 26.0232
    6719     -30.64271     56.26727         25.62457   7.75828  6716   % 26.0237
    6720     -30.64312     56.26779         25.62467   7.75838  6717   % 26.0243
    6721     -30.64333     56.26807         25.62474   7.75845  6718   % 26.0248
    6722     -30.64340     56.26817         25.62478   7.75849  6719   % 26.0253
    6723     -30.64343     56.26821         25.62478   7.75849  6720   % 26.0257
    6724     -30.64347     56.26824         25.62478   7.75849  6721   % 26.0261
    6725     -30.64352     56.26830         25.62478   7.75849  6722   % 26.0266
    6726     -30.64360     56.26837         25.62477   7.75848  6723   % 26.0274
    6727     -30.64370     56.26847         25.62477   7.75848  6724   % 26.0286
    6728     -30.64384     56.26862         25.62478   7.75849  6725   % 26.0301
    6729     -30.64339     56.26902         25.62563   7.75934  6726   % 26.0336
    6730     -30.63745     56.27467         25.63722   7.77093  6727   % 26.0301
    6731     -30.64285     56.28218         25.63933   7.77304  6728   % 26.0322
    6732     -30.64328     56.28264         25.63937   7.77308  6729   % 26.0325
    6733     -30.64367     56.28310         25.63943   7.77314  6730   % 26.0329
    6734     -30.64398     56.28347         25.63949   7.77320  6731   % 26.0333
    6735     -30.64415     56.28371         25.63955   7.77326  6732   % 26.0338
    6736     -30.64422     56.28381         25.63958   7.77329  6733   % 26.0342
    6737     -30.64425     56.28384         25.63959   7.77330  6734   % 26.0346
    6738     -30.64429     56.28387         25.63959   7.77330  6735   % 26.0349
    6739     -30.64433     56.28392         25.63959   7.77330  6736   % 26.0354
    6740     -30.64440     56.28398         25.63958   7.77330  6737   % 26.0362
    6741     -30.64449     56.28408         25.63958   7.77329  6738   % 26.0372
    6742     -30.64463     56.28420         25.63958   7.77329  6739   % 26.0387
    6743     -30.64480     56.28439         25.63959   7.77330  6740   % 26.0405
    6744     -30.64341     56.28502         25.64161   7.77532  6741   % 26.0454
    6745     -30.63526     56.29661         25.66135   7.79506  6742   % 26.0398
    6746     -30.64093     56.30345         25.66252   7.79623  6743   % 26.0415
    6747     -30.64206     56.30466         25.66260   7.79632  6744   % 26.0419
    6748     -30.64319     56.30592         25.66273   7.79644  6745   % 26.0425
    6749     -30.64409     56.30694         25.66285   7.79657  6746   % 26.0431
    6750     -30.64469     56.30766         25.66296   7.79667  6747   % 26.0437
    6751     -30.64505     56.30810         25.66305   7.79677  6748   % 26.0443
    6752     -30.64520     56.30831         25.66311   7.79682  6749   % 26.0448
    6753     -30.64524     56.30837         25.66313   7.79684  6750   % 26.0452
    6754     -30.64527     56.30840         25.66313   7.79684  6751   % 26.0456
    6755     -30.64532     56.30844         25.66312   7.79684  6752   % 26.0461
    6756     -30.64538     56.30850         25.66312   7.79683  6753   % 26.0467
    6757     -30.64546     56.30858         25.66312   7.79683  6754   % 26.0476
    6758     -30.64558     56.30870         25.66312   7.79683  6755   % 26.0490
    6759     -30.64567     56.30889         25.66322   7.79693  6756   % 26.0504
    6760     -30.64010     56.31066         25.67056   7.80427  6757   % 26.0570
    6761     -30.64398     56.32942         25.68544   7.81915  6758   % 26.0517
    6762     -30.64467     56.33018         25.68551   7.81922  6759   % 26.0521
    6763     -30.64529     56.33089         25.68559   7.81931  6760   % 26.0526
    6764     -30.64575     56.33144         25.68569   7.81940  6761   % 26.0532
    6765     -30.64599     56.33175         25.68576   7.81947  6762   % 26.0538
    6766     -30.64607     56.33187         25.68580   7.81951  6763   % 26.0542
    6767     -30.64610     56.33190         25.68580   7.81951  6764   % 26.0546
    6768     -30.64614     56.33194         25.68580   7.81951  6765   % 26.0550
    6769     -30.64619     56.33199         25.68580   7.81951  6766   % 26.0556
    6770     -30.64626     56.33206         25.68579   7.81951  6767   % 26.0564
    6771     -30.64636     56.33215         25.68579   7.81950  6768   % 26.0575
    6772     -30.64650     56.33229         25.68579   7.81950  6769   % 26.0589
    6773     -30.64657     56.33254         25.68597   7.81968  6770   % 26.0617
    6774     -30.63648     56.33560         25.69912   7.83283  6771   % 26.0597
    6775     -30.64680     56.35888         25.71208   7.84580  6772   % 26.0642
    6776     -30.64685     56.35894         25.71209   7.84580  6773   % 26.0642
    6777     -30.64689     56.35899         25.71210   7.84581  6774   % 26.0642
    6778     -30.64693     56.35904         25.71211   7.84582  6775   % 26.0642
    6779     -30.64697     56.35909         25.71212   7.84583  6776   % 26.0642
    6780     -30.64699     56.35912         25.71213   7.84584  6777   % 26.0643
    6781     -30.64701     56.35914         25.71213   7.84584  6778   % 26.0645
    6782     -30.64703     56.35916         25.71213   7.84584  6779   % 26.0647
    6783     -30.64707     56.35920         25.71213   7.84584  6780   % 26.0652
    6784     -30.64713     56.35925         25.71213   7.84584  6781   % 26.0657
    6785     -30.64720     56.35932         25.71212   7.84584  6782   % 26.0666
    6786     -30.64730     56.35943         25.71212   7.84583  6783   % 26.0677
    6787     -30.64746     56.35957         25.71211   7.84583  6784   % 26.0694
    6788     -30.64751     56.35981         25.71230   7.84601  6785   % 26.0714
    6789     -30.63830     56.36259         25.72429   7.85800  6786   % 26.0759
    6790     -30.64738     56.38647         25.73909   7.87280  6787   % 26.0740
    6791     -30.64752     56.38661         25.73909   7.87280  6788   % 26.0741
    6792     -30.64766     56.38676         25.73910   7.87281  6789   % 26.0742
    6793     -30.64779     56.38690         25.73911   7.87282  6790   % 26.0743
    6794     -30.64788     56.38701         25.73912   7.87283  6791   % 26.0745
    6795     -30.64794     56.38707         25.73913   7.87284  6792   % 26.0747
    6796     -30.64797     56.38710         25.73913   7.87284  6793   % 26.0749
    6797     -30.64800     56.38713         25.73913   7.87284  6794   % 26.0752
    6798     -30.64803     56.38716         25.73913   7.87284  6795   % 26.0756
    6799     -30.64809     56.38721         25.73913   7.87284  6796   % 26.0762
    6800     -30.64816     56.38728         25.73912   7.87283  6797   % 26.0770
    6801     -30.64827     56.38739         25.73912   7.87283  6798   % 26.0782
    6802     -30.64840     56.38753         25.73913   7.87284  6799   % 26.0798
    6803     -30.64817     56.38787         25.73970   7.87341  6800   % 26.0823


          FINAL GEOMETRY OBTAINED                                 CHARGE
 PM6-D3H4 CHARGE=0 IRC=1 LARGE=100 LET CYCLES=10000
 (irc)

   O    0.000000  0    0.000000  0    0.000000  0   0  0  0   -0.4916    6800AA*
   C    1.374364  1    0.000000  0    0.000000  0   1  0  0    0.2878    6800AB*
   C    1.405638  1  113.210391  1    0.000000  0   2  1  0   -0.2884    6800AC*
   C    1.392596  1  118.886941  1  178.293743  1   3  2  1   -0.0630    6800AD*
   C    1.399398  1  120.079238  1    0.126238  1   4  3  2   -0.2291    6800AE*
   C    1.397405  1  120.267988  1    0.426541  1   5  4  3   -0.0864    6800AF*
   C    1.402316  1  121.350986  1  359.499325  1   6  5  4   -0.1353    6800AG*
   H    1.087956  1  119.198553  1  357.792522  1   3  2  1    0.1772    6800AH*
   H    1.089836  1  119.821544  1  180.103806  1   4  3  2    0.1432    6800AI*
   H    1.088028  1  119.919013  1  180.189031  1   5  4  3    0.1543    6800AJ*
   C    1.502804  1  120.198754  1  182.250567  1   7  6  5   -0.3024    6800AK*
   H    3.124285  1  105.403805  1  276.167034  1   7  6  5    0.3423    6800AL*
   C    1.502289  1  113.383168  1  229.627640  1  11  7  6   -0.0870    6800AM*
   H    1.127720  1  107.886123  1  105.958221  1  11  7  6    0.1850    6800AN*
   H    1.122202  1  110.044572  1  349.632784  1  11  7  6    0.1642    6800AO*
   C    1.332529  1  123.541214  1  229.144753  1  13 11  7   -0.3821    6800AP*
   H    1.093406  1  114.405913  1   49.606724  1  13 11  7    0.1440    6800AQ*
   H    1.090923  1  123.022137  1    0.493570  1  16 13 11    0.1634    6800AR*
   H    1.089506  1  122.044546  1  181.210548  1  16 13 11    0.1581    6800AS*
   O    0.995526  1   93.681539  1  237.509160  1  12  7  6   -0.4931    6800AT*
   C    1.374655  1  113.061883  1  251.407380  1  20 12  7    0.2874    6800AU*
   C    1.405356  1  113.223580  1  179.787090  1  21 20 12   -0.2880    6800AV*
   C    1.392711  1  118.871730  1  181.328278  1  22 21 20   -0.0627    6800AW*
   C    1.399349  1  120.099075  1  359.841859  1  23 22 21   -0.2286    6800AX*
   C    1.397537  1  120.254989  1  359.783132  1  24 23 22   -0.0863    6800AY*
   C    1.410895  1  124.462531  1    0.767216  1  21 20 12   -0.1341    6800B@*
   H    1.087833  1  119.216964  1    1.870410  1  22 21 20    0.1769    6800BA*
   H    1.089772  1  119.808651  1  179.908124  1  23 22 21    0.1431    6800BB*
   H    1.088003  1  119.932007  1  179.935191  1  24 23 22    0.1543    6800BC*
   H    1.090589  1  119.165055  1  180.127153  1  25 24 23    0.1458    6800BD*
   C    1.502886  1  122.626416  1    1.253654  1  26 21 20   -0.3012    6800BE*
   H    3.166233  1   76.067670  1   77.329522  1  26 21 20    0.3422    6800BF*
   C    1.502416  1  113.438917  1  307.793152  1  31 26 21   -0.0884    6800BG*
   H    1.122149  1  110.034597  1  187.765540  1  31 26 21    0.1641    6800BH*
   H    1.127290  1  107.753941  1   71.491363  1  31 26 21    0.1839    6800BI*
   C    1.332634  1  123.553215  1  130.770415  1  33 31 26   -0.3819    6800BJ*
   H    1.093269  1  114.385156  1  310.298288  1  33 31 26    0.1441    6800BK*
   H    1.090154  1  123.013005  1  359.504499  1  36 33 31    0.1645    6800BL*
   H    1.088424  1  122.051916  1  178.782873  1  36 33 31    0.1581    6800BM*
   H    1.090616  1  119.176559  1  179.722280  1   6  5  4    0.1458    6800BN*


     POINT   POTENTIAL  +  ENERGY LOST   =   TOTAL      ERROR    REF%   MOVEMENT
    6804     -30.63882     56.39338         25.75455   7.88827  6801   % 26.0825
    6805     -30.64739     56.40574         25.75835   7.89207  6802   % 26.0832
    6806     -30.64775     56.40612         25.75837   7.89208  6803   % 26.0833
    6807     -30.64812     56.40652         25.75840   7.89211  6804   % 26.0835
    6808     -30.64844     56.40688         25.75844   7.89215  6805   % 26.0836
    6809     -30.64866     56.40714         25.75848   7.89219  6806   % 26.0838
    6810     -30.64878     56.40728         25.75850   7.89221  6807   % 26.0840
    6811     -30.64882     56.40733         25.75851   7.89222  6808   % 26.0842
    6812     -30.64885     56.40736         25.75851   7.89222  6809   % 26.0845
    6813     -30.64889     56.40739         25.75851   7.89222  6810   % 26.0850
    6814     -30.64894     56.40744         25.75850   7.89221  6811   % 26.0855
    6815     -30.64901     56.40751         25.75850   7.89221  6812   % 26.0864
    6816     -30.64912     56.40762         25.75850   7.89221  6813   % 26.0875
    6817     -30.64924     56.40777         25.75853   7.89224  6814   % 26.0891
    6818     -30.64806     56.40838         25.76033   7.89404  6815   % 26.0918
    6819     -30.64290     56.41766         25.77476   7.90848  6816   % 26.0916
    6820     -30.64684     56.42242         25.77558   7.90929  6817   % 26.0919
    6821     -30.64773     56.42337         25.77565   7.90936  6818   % 26.0921
    6822     -30.64854     56.42428         25.77574   7.90945  6819   % 26.0922
    6823     -30.64915     56.42499         25.77585   7.90956  6820   % 26.0924
    6824     -30.64947     56.42540         25.77593   7.90964  6821   % 26.0926
    6825     -30.64959     56.42556         25.77596   7.90968  6822   % 26.0928
    6826     -30.64963     56.42560         25.77597   7.90968  6823   % 26.0931
    6827     -30.64966     56.42563         25.77597   7.90968  6824   % 26.0935
    6828     -30.64971     56.42567         25.77596   7.90968  6825   % 26.0939
    6829     -30.64977     56.42573         25.77596   7.90967  6826   % 26.0947
    6830     -30.64986     56.42582         25.77596   7.90967  6827   % 26.0956
    6831     -30.64999     56.42594         25.77595   7.90966  6828   % 26.0970
    6832     -30.65016     56.42611         25.77595   7.90966  6829   % 26.0990
    6833     -30.65025     56.42640         25.77616   7.90987  6830   % 26.1021
    6834     -30.63037     56.43104         25.80067   7.93439  6831   % 26.1016
    6835     -30.65069     56.47121         25.82052   7.95423  6832   % 26.1047


 IRC CALCULATION COMPLETE 

 **********************
 *                    *
 * JOB ENDED NORMALLY *
 *                    *
 **********************



 TOTAL JOB TIME:           224.87 SECONDS

 == MOPAC DONE ==
