 INFO
nunit      1    1    1
unit   cell
celltype   convcell
shape   parapipedal
 END_INFO
 DIM-GROUP
           3           1
 PRIMVEC
   11.5273935820    0.0000000000    0.0000000000
   -0.0000000000   11.5273935820    0.0000000000
    0.0000000000    0.0000000000   11.5273935820
 CONVVEC
   11.5273935820    0.0000000000    0.0000000000
   -0.0000000000   11.5273935820    0.0000000000
    0.0000000000    0.0000000000   11.5273935820
 PRIMCOORD
          64           1
 29      0.0000000000     0.0000000000     0.0000000000     0.0000000000     0.0000000000     0.0000000000
 32      5.7636954130     5.7636954130     0.0000000000     0.0000000000     0.0000000000     0.0000000000
 32      5.7636954130     0.0000000000     5.7636954130     0.0000000000     0.0000000000     0.0000000000
 32      0.0000000000     5.7636954130     5.7636954130     0.0000000000     0.0000000000     0.0000000000
 32      8.6494259610     8.6494259610     5.7644655470     0.0000157200     0.0000157200     0.0000021300
 32      8.6650569070     2.8623339210    -0.0185369090     0.0000020900    -0.0000020900    -0.0000525800
 32      2.8623339210     8.6650569070    -0.0185369090    -0.0000020900     0.0000020900    -0.0000525800
 32      2.8779648670     2.8779648670     5.7644655470    -0.0000157200    -0.0000157200     0.0000021300
 32     11.5459277360     8.6650569070     8.6650569070     0.0000525800     0.0000020900     0.0000020900
 32     11.5459277360     2.8623339210     2.8623339210     0.0000525800    -0.0000020900    -0.0000020900
 32      5.7629252800     8.6494259610     2.8779648670    -0.0000021300     0.0000157200    -0.0000157200
 32      5.7629252800     2.8779648670     8.6494259610    -0.0000021300    -0.0000157200     0.0000157200
 32      5.7644540200     8.6494259610     8.6494259610     0.0000021300     0.0000157200     0.0000157200
 32      5.7644540200     2.8779648670     2.8779648670     0.0000021300    -0.0000157200    -0.0000157200
 32     -0.0185484360     8.6650569070     2.8623339210    -0.0000525800     0.0000020900    -0.0000020900
 32     -0.0185484360     2.8623339210     8.6650569070    -0.0000525800    -0.0000020900     0.0000020900
 32      8.6650569070     8.6650569070    11.5459392630     0.0000020900     0.0000020900     0.0000525800
 32      8.6494259610     2.8779648670     5.7629368080     0.0000157200    -0.0000157200    -0.0000021300
 32      2.8779648670     8.6494259610     5.7629368080    -0.0000157200     0.0000157200    -0.0000021300
 32      2.8623339210     2.8623339210    11.5459392630    -0.0000020900    -0.0000020900     0.0000525800
 32      8.6494259610     5.7644540200     8.6494259610     0.0000157200     0.0000021300     0.0000157200
 32      8.6650569070    -0.0185484360     2.8623339210     0.0000020900    -0.0000525800    -0.0000020900
 32      2.8779648670     5.7644540200     2.8779648670    -0.0000157200     0.0000021300    -0.0000157200
 32      2.8623339210    -0.0185484360     8.6650569070    -0.0000020900    -0.0000525800     0.0000020900
 32      8.6650569070    11.5459392630     8.6650569070     0.0000020900     0.0000525800     0.0000020900
 32      8.6494259610     5.7629368080     2.8779648670     0.0000157200    -0.0000021300    -0.0000157200
 32      2.8623339210    11.5459392630     2.8623339210    -0.0000020900     0.0000525800    -0.0000020900
 32      2.8779648670     5.7629368080     8.6494259610    -0.0000157200    -0.0000021300     0.0000157200
 32      5.7636954130     5.7636954130     5.7636954130     0.0000000000     0.0000000000     0.0000000000
 32      5.7636954130     0.0000000000     0.0000000000     0.0000000000     0.0000000000     0.0000000000
 32      0.0000000000     5.7636954130     0.0000000000     0.0000000000     0.0000000000     0.0000000000
 32      0.0000000000     0.0000000000     5.7636954130     0.0000000000     0.0000000000     0.0000000000
 32      1.3703636680     1.3703636680     1.3703636680    -0.0000029100    -0.0000029100    -0.0000029100
 32      1.4422444310     7.2062269460     7.2062269460     0.0000915700    -0.0000338500    -0.0000338500
 32      7.2062269460     1.4422444310     7.2062269460    -0.0000338500     0.0000915700    -0.0000338500
 32      7.2062269460     7.2062269460     1.4422444310    -0.0000338500    -0.0000338500     0.0000915700
 32      1.4422444310     4.3211638810     4.3211754090     0.0000915700     0.0000338500     0.0000338500
 32      1.3703636680    10.1570271590    10.1570386860    -0.0000029100     0.0000029100     0.0000029100
 32      7.2062269460     4.3211638810    10.0851579230    -0.0000338500     0.0000338500    -0.0000915700
 32      7.2062269460    10.0851463960     4.3211754090    -0.0000338500    -0.0000915700     0.0000338500
 32      4.3211869360     4.3211869360     1.4422329040     0.0000338500     0.0000338500     0.0000915700
 32      4.3211869360    10.0851694510     7.2062154190     0.0000338500    -0.0000915700    -0.0000338500
 32     10.0851694510     4.3211869360     7.2062154190    -0.0000915700     0.0000338500    -0.0000338500
 32     10.1570502140    10.1570502140     1.3703521410     0.0000029100     0.0000029100    -0.0000029100
 32      4.3211638810     1.4422444310     4.3211754090     0.0000338500     0.0000915700     0.0000338500
 32      4.3211638810     7.2062269460    10.0851579230     0.0000338500    -0.0000338500    -0.0000915700
 32     10.1570271590     1.3703636680    10.1570386860     0.0000029100    -0.0000029100     0.0000029100
 32     10.0851463960     7.2062269460     4.3211754090    -0.0000915700    -0.0000338500     0.0000338500
 32      4.3211797430     4.3211797430     7.2062110840    -0.0000312400    -0.0000312400     0.0000312400
 32      4.3097636260    10.0897611680     1.4376296590     0.0000153000    -0.0000034700     0.0000034700
 32     10.0897611680     4.3097636260     1.4376296590    -0.0000034700     0.0000153000     0.0000034700
 32     10.0897611680    10.0897611680     7.2176272010    -0.0000034700    -0.0000034700    -0.0000153000
 32      7.2062110840     4.3211797430     4.3211912700     0.0000312400    -0.0000312400    -0.0000312400
 32      7.2176272010    10.0897611680    10.0897726950    -0.0000153000    -0.0000034700    -0.0000034700
 32      1.4376296590     4.3097636260    10.0897726950     0.0000034700     0.0000153000    -0.0000034700
 32      1.4376296590    10.0897611680     4.3097751530     0.0000034700    -0.0000034700     0.0000153000
 32      7.2062110840     7.2062110840     7.2062110840     0.0000312400     0.0000312400     0.0000312400
 32      7.2176272010     1.4376296590     1.4376296590    -0.0000153000     0.0000034700     0.0000034700
 32      1.4376296590     7.2176272010     1.4376296590     0.0000034700    -0.0000153000     0.0000034700
 32      1.4376296590     1.4376296590     7.2176272010     0.0000034700     0.0000034700    -0.0000153000
 32      4.3211797430     7.2062110840     4.3211912700    -0.0000312400     0.0000312400    -0.0000312400
 32      4.3097636260     1.4376296590    10.0897726950     0.0000153000     0.0000034700    -0.0000034700
 32     10.0897611680     7.2176272010    10.0897726950    -0.0000034700    -0.0000153000    -0.0000034700
 32     10.0897611680     1.4376296590     4.3097751530    -0.0000034700     0.0000034700     0.0000153000
 CONVCOORD
          64           1
 29      0.0000000000     0.0000000000     0.0000000000
 32      5.7636954130     5.7636954130     0.0000000000
 32      5.7636954130     0.0000000000     5.7636954130
 32      0.0000000000     5.7636954130     5.7636954130
 32      8.6494259610     8.6494259610     5.7644655470
 32      8.6650569070     2.8623339210    -0.0185369090
 32      2.8623339210     8.6650569070    -0.0185369090
 32      2.8779648670     2.8779648670     5.7644655470
 32      0.0185341540     8.6650569070     8.6650569070
 32      0.0185341540     2.8623339210     2.8623339210
 32      5.7629252800     8.6494259610     2.8779648670
 32      5.7629252800     2.8779648670     8.6494259610
 32      5.7644540200     8.6494259610     8.6494259610
 32      5.7644540200     2.8779648670     2.8779648670
 32     -0.0185484360     8.6650569070     2.8623339210
 32     -0.0185484360     2.8623339210     8.6650569070
 32      8.6650569070     8.6650569070     0.0185456810
 32      8.6494259610     2.8779648670     5.7629368080
 32      2.8779648670     8.6494259610     5.7629368080
 32      2.8623339210     2.8623339210     0.0185456810
 32      8.6494259610     5.7644540200     8.6494259610
 32      8.6650569070    -0.0185484360     2.8623339210
 32      2.8779648670     5.7644540200     2.8779648670
 32      2.8623339210    -0.0185484360     8.6650569070
 32      8.6650569070     0.0185456810     8.6650569070
 32      8.6494259610     5.7629368080     2.8779648670
 32      2.8623339210     0.0185456810     2.8623339210
 32      2.8779648670     5.7629368080     8.6494259610
 32      5.7636954130     5.7636954130     5.7636954130
 32      5.7636954130     0.0000000000     0.0000000000
 32      0.0000000000     5.7636954130     0.0000000000
 32      0.0000000000     0.0000000000     5.7636954130
 32      1.3703636680     1.3703636680     1.3703636680
 32      1.4422444310     7.2062269460     7.2062269460
 32      7.2062269460     1.4422444310     7.2062269460
 32      7.2062269460     7.2062269460     1.4422444310
 32      1.4422444310     4.3211638810     4.3211754090
 32      1.3703636680    10.1570271590    10.1570386860
 32      7.2062269460     4.3211638810    10.0851579230
 32      7.2062269460    10.0851463960     4.3211754090
 32      4.3211869360     4.3211869360     1.4422329040
 32      4.3211869360    10.0851694510     7.2062154190
 32     10.0851694510     4.3211869360     7.2062154190
 32     10.1570502140    10.1570502140     1.3703521410
 32      4.3211638810     1.4422444310     4.3211754090
 32      4.3211638810     7.2062269460    10.0851579230
 32     10.1570271590     1.3703636680    10.1570386860
 32     10.0851463960     7.2062269460     4.3211754090
 32      4.3211797430     4.3211797430     7.2062110840
 32      4.3097636260    10.0897611680     1.4376296590
 32     10.0897611680     4.3097636260     1.4376296590
 32     10.0897611680    10.0897611680     7.2176272010
 32      7.2062110840     4.3211797430     4.3211912700
 32      7.2176272010    10.0897611680    10.0897726950
 32      1.4376296590     4.3097636260    10.0897726950
 32      1.4376296590    10.0897611680     4.3097751530
 32      7.2062110840     7.2062110840     7.2062110840
 32      7.2176272010     1.4376296590     1.4376296590
 32      1.4376296590     7.2176272010     1.4376296590
 32      1.4376296590     1.4376296590     7.2176272010
 32      4.3211797430     7.2062110840     4.3211912700
 32      4.3097636260     1.4376296590    10.0897726950
 32     10.0897611680     7.2176272010    10.0897726950
 32     10.0897611680     1.4376296590     4.3097751530
 RECIP-PRIMVEC
    0.0867498791    0.0000000000   -0.0000000000

    0.0000000000    0.0867498791    0.0000000000

    0.0000000000   -0.0000000000    0.0867498791

 RECIP-CONVVEC
    0.0867498791    0.0000000000   -0.0000000000

    0.0000000000    0.0867498791    0.0000000000

    0.0000000000   -0.0000000000    0.0867498791

 WIGNER-SEITZ-PRIMCELL
           4
 -0.5763697E+01 -0.5763697E+01  0.5763697E+01  -0.1000000E+01  0.7704937E-16 -0.7704937E-16
 -0.5763697E+01  0.5763697E+01  0.5763697E+01  -0.1000000E+01  0.7704937E-16 -0.7704937E-16
 -0.5763697E+01  0.5763697E+01 -0.5763697E+01  -0.1000000E+01  0.7704937E-16 -0.7704937E-16
 -0.5763697E+01 -0.5763697E+01 -0.5763697E+01  -0.1000000E+01  0.7704937E-16 -0.7704937E-16
           4
 -0.5763697E+01 -0.5763697E+01  0.5763697E+01  -0.0000000E+00 -0.1000000E+01 -0.0000000E+00
 -0.5763697E+01 -0.5763697E+01 -0.5763697E+01  -0.0000000E+00 -0.1000000E+01 -0.0000000E+00
  0.5763697E+01 -0.5763697E+01 -0.5763697E+01  -0.0000000E+00 -0.1000000E+01 -0.0000000E+00
  0.5763697E+01 -0.5763697E+01  0.5763697E+01  -0.0000000E+00 -0.1000000E+01 -0.0000000E+00
           4
 -0.5763697E+01  0.5763697E+01 -0.5763697E+01   0.0000000E+00  0.6841969E-16 -0.1000000E+01
  0.5763697E+01  0.5763697E+01 -0.5763697E+01   0.0000000E+00  0.6841969E-16 -0.1000000E+01
  0.5763697E+01 -0.5763697E+01 -0.5763697E+01   0.0000000E+00  0.6841969E-16 -0.1000000E+01
 -0.5763697E+01 -0.5763697E+01 -0.5763697E+01   0.0000000E+00  0.6841969E-16 -0.1000000E+01
           4
 -0.5763697E+01 -0.5763697E+01  0.5763697E+01  -0.0000000E+00  0.5979001E-16  0.1000000E+01
  0.5763697E+01 -0.5763697E+01  0.5763697E+01  -0.0000000E+00  0.5979001E-16  0.1000000E+01
  0.5763697E+01  0.5763697E+01  0.5763697E+01  -0.0000000E+00  0.5979001E-16  0.1000000E+01
 -0.5763697E+01  0.5763697E+01  0.5763697E+01  -0.0000000E+00  0.5979001E-16  0.1000000E+01
           4
  0.5763697E+01  0.5763697E+01  0.5763697E+01   0.0000000E+00  0.1000000E+01  0.1069444E-15
  0.5763697E+01  0.5763697E+01 -0.5763697E+01   0.0000000E+00  0.1000000E+01  0.1069444E-15
 -0.5763697E+01  0.5763697E+01 -0.5763697E+01   0.0000000E+00  0.1000000E+01  0.1069444E-15
 -0.5763697E+01  0.5763697E+01  0.5763697E+01   0.0000000E+00  0.1000000E+01  0.1069444E-15
           4
  0.5763697E+01 -0.5763697E+01  0.5763697E+01   0.1000000E+01  0.7704937E-16  0.7704937E-16
  0.5763697E+01 -0.5763697E+01 -0.5763697E+01   0.1000000E+01  0.7704937E-16  0.7704937E-16
  0.5763697E+01  0.5763697E+01 -0.5763697E+01   0.1000000E+01  0.7704937E-16  0.7704937E-16
  0.5763697E+01  0.5763697E+01  0.5763697E+01   0.1000000E+01  0.7704937E-16  0.7704937E-16
 WIGNER-SEITZ-PRIMCELL_END
 WIGNER-SEITZ-CONVCELL
           4
 -0.5763697E+01 -0.5763697E+01  0.5763697E+01  -0.1000000E+01  0.7704937E-16 -0.7704937E-16
 -0.5763697E+01  0.5763697E+01  0.5763697E+01  -0.1000000E+01  0.7704937E-16 -0.7704937E-16
 -0.5763697E+01  0.5763697E+01 -0.5763697E+01  -0.1000000E+01  0.7704937E-16 -0.7704937E-16
 -0.5763697E+01 -0.5763697E+01 -0.5763697E+01  -0.1000000E+01  0.7704937E-16 -0.7704937E-16
           4
 -0.5763697E+01 -0.5763697E+01  0.5763697E+01  -0.0000000E+00 -0.1000000E+01 -0.0000000E+00
 -0.5763697E+01 -0.5763697E+01 -0.5763697E+01  -0.0000000E+00 -0.1000000E+01 -0.0000000E+00
  0.5763697E+01 -0.5763697E+01 -0.5763697E+01  -0.0000000E+00 -0.1000000E+01 -0.0000000E+00
  0.5763697E+01 -0.5763697E+01  0.5763697E+01  -0.0000000E+00 -0.1000000E+01 -0.0000000E+00
           4
 -0.5763697E+01  0.5763697E+01 -0.5763697E+01   0.0000000E+00  0.6841969E-16 -0.1000000E+01
  0.5763697E+01  0.5763697E+01 -0.5763697E+01   0.0000000E+00  0.6841969E-16 -0.1000000E+01
  0.5763697E+01 -0.5763697E+01 -0.5763697E+01   0.0000000E+00  0.6841969E-16 -0.1000000E+01
 -0.5763697E+01 -0.5763697E+01 -0.5763697E+01   0.0000000E+00  0.6841969E-16 -0.1000000E+01
           4
 -0.5763697E+01 -0.5763697E+01  0.5763697E+01  -0.0000000E+00  0.5979001E-16  0.1000000E+01
  0.5763697E+01 -0.5763697E+01  0.5763697E+01  -0.0000000E+00  0.5979001E-16  0.1000000E+01
  0.5763697E+01  0.5763697E+01  0.5763697E+01  -0.0000000E+00  0.5979001E-16  0.1000000E+01
 -0.5763697E+01  0.5763697E+01  0.5763697E+01  -0.0000000E+00  0.5979001E-16  0.1000000E+01
           4
  0.5763697E+01  0.5763697E+01  0.5763697E+01   0.0000000E+00  0.1000000E+01  0.1069444E-15
  0.5763697E+01  0.5763697E+01 -0.5763697E+01   0.0000000E+00  0.1000000E+01  0.1069444E-15
 -0.5763697E+01  0.5763697E+01 -0.5763697E+01   0.0000000E+00  0.1000000E+01  0.1069444E-15
 -0.5763697E+01  0.5763697E+01  0.5763697E+01   0.0000000E+00  0.1000000E+01  0.1069444E-15
           4
  0.5763697E+01 -0.5763697E+01  0.5763697E+01   0.1000000E+01  0.7704937E-16  0.7704937E-16
  0.5763697E+01 -0.5763697E+01 -0.5763697E+01   0.1000000E+01  0.7704937E-16  0.7704937E-16
  0.5763697E+01  0.5763697E+01 -0.5763697E+01   0.1000000E+01  0.7704937E-16  0.7704937E-16
  0.5763697E+01  0.5763697E+01  0.5763697E+01   0.1000000E+01  0.7704937E-16  0.7704937E-16
 WIGNER-SEITZ-CONVCELL_END
 BRILLOUIN-ZONE-PRIMCELL
           4
 -0.4337494E-01 -0.4337494E-01  0.4337494E-01  -0.1000000E+01  0.0000000E+00  0.0000000E+00
 -0.4337494E-01  0.4337494E-01  0.4337494E-01  -0.1000000E+01  0.0000000E+00  0.0000000E+00
 -0.4337494E-01  0.4337494E-01 -0.4337494E-01  -0.1000000E+01  0.0000000E+00  0.0000000E+00
 -0.4337494E-01 -0.4337494E-01 -0.4337494E-01  -0.1000000E+01  0.0000000E+00  0.0000000E+00
           4
 -0.4337494E-01 -0.4337494E-01 -0.4337494E-01  -0.0000000E+00 -0.1000000E+01 -0.0000000E+00
  0.4337494E-01 -0.4337494E-01 -0.4337494E-01  -0.0000000E+00 -0.1000000E+01 -0.0000000E+00
  0.4337494E-01 -0.4337494E-01  0.4337494E-01  -0.0000000E+00 -0.1000000E+01 -0.0000000E+00
 -0.4337494E-01 -0.4337494E-01  0.4337494E-01  -0.0000000E+00 -0.1000000E+01 -0.0000000E+00
           4
 -0.4337494E-01  0.4337494E-01 -0.4337494E-01   0.0000000E+00  0.0000000E+00 -0.1000000E+01
  0.4337494E-01  0.4337494E-01 -0.4337494E-01   0.0000000E+00  0.0000000E+00 -0.1000000E+01
  0.4337494E-01 -0.4337494E-01 -0.4337494E-01   0.0000000E+00  0.0000000E+00 -0.1000000E+01
 -0.4337494E-01 -0.4337494E-01 -0.4337494E-01   0.0000000E+00  0.0000000E+00 -0.1000000E+01
           4
 -0.4337494E-01 -0.4337494E-01  0.4337494E-01  -0.0000000E+00 -0.0000000E+00  0.1000000E+01
  0.4337494E-01 -0.4337494E-01  0.4337494E-01  -0.0000000E+00 -0.0000000E+00  0.1000000E+01
  0.4337494E-01  0.4337494E-01  0.4337494E-01  -0.0000000E+00 -0.0000000E+00  0.1000000E+01
 -0.4337494E-01  0.4337494E-01  0.4337494E-01  -0.0000000E+00 -0.0000000E+00  0.1000000E+01
           4
 -0.4337494E-01  0.4337494E-01  0.4337494E-01   0.0000000E+00  0.1000000E+01  0.0000000E+00
  0.4337494E-01  0.4337494E-01  0.4337494E-01   0.0000000E+00  0.1000000E+01  0.0000000E+00
  0.4337494E-01  0.4337494E-01 -0.4337494E-01   0.0000000E+00  0.1000000E+01  0.0000000E+00
 -0.4337494E-01  0.4337494E-01 -0.4337494E-01   0.0000000E+00  0.1000000E+01  0.0000000E+00
           4
  0.4337494E-01 -0.4337494E-01 -0.4337494E-01   0.1000000E+01 -0.0000000E+00 -0.0000000E+00
  0.4337494E-01  0.4337494E-01 -0.4337494E-01   0.1000000E+01 -0.0000000E+00 -0.0000000E+00
  0.4337494E-01  0.4337494E-01  0.4337494E-01   0.1000000E+01 -0.0000000E+00 -0.0000000E+00
  0.4337494E-01 -0.4337494E-01  0.4337494E-01   0.1000000E+01 -0.0000000E+00 -0.0000000E+00
 BRILLOUIN-ZONE-PRIMCELL_END
 BRILLOUIN-ZONE-CONVCELL
           4
 -0.4337494E-01 -0.4337494E-01  0.4337494E-01  -0.1000000E+01  0.0000000E+00  0.0000000E+00
 -0.4337494E-01  0.4337494E-01  0.4337494E-01  -0.1000000E+01  0.0000000E+00  0.0000000E+00
 -0.4337494E-01  0.4337494E-01 -0.4337494E-01  -0.1000000E+01  0.0000000E+00  0.0000000E+00
 -0.4337494E-01 -0.4337494E-01 -0.4337494E-01  -0.1000000E+01  0.0000000E+00  0.0000000E+00
           4
 -0.4337494E-01 -0.4337494E-01 -0.4337494E-01  -0.0000000E+00 -0.1000000E+01 -0.0000000E+00
  0.4337494E-01 -0.4337494E-01 -0.4337494E-01  -0.0000000E+00 -0.1000000E+01 -0.0000000E+00
  0.4337494E-01 -0.4337494E-01  0.4337494E-01  -0.0000000E+00 -0.1000000E+01 -0.0000000E+00
 -0.4337494E-01 -0.4337494E-01  0.4337494E-01  -0.0000000E+00 -0.1000000E+01 -0.0000000E+00
           4
 -0.4337494E-01  0.4337494E-01 -0.4337494E-01   0.0000000E+00  0.0000000E+00 -0.1000000E+01
  0.4337494E-01  0.4337494E-01 -0.4337494E-01   0.0000000E+00  0.0000000E+00 -0.1000000E+01
  0.4337494E-01 -0.4337494E-01 -0.4337494E-01   0.0000000E+00  0.0000000E+00 -0.1000000E+01
 -0.4337494E-01 -0.4337494E-01 -0.4337494E-01   0.0000000E+00  0.0000000E+00 -0.1000000E+01
           4
 -0.4337494E-01 -0.4337494E-01  0.4337494E-01  -0.0000000E+00 -0.0000000E+00  0.1000000E+01
  0.4337494E-01 -0.4337494E-01  0.4337494E-01  -0.0000000E+00 -0.0000000E+00  0.1000000E+01
  0.4337494E-01  0.4337494E-01  0.4337494E-01  -0.0000000E+00 -0.0000000E+00  0.1000000E+01
 -0.4337494E-01  0.4337494E-01  0.4337494E-01  -0.0000000E+00 -0.0000000E+00  0.1000000E+01
           4
 -0.4337494E-01  0.4337494E-01  0.4337494E-01   0.0000000E+00  0.1000000E+01  0.0000000E+00
  0.4337494E-01  0.4337494E-01  0.4337494E-01   0.0000000E+00  0.1000000E+01  0.0000000E+00
  0.4337494E-01  0.4337494E-01 -0.4337494E-01   0.0000000E+00  0.1000000E+01  0.0000000E+00
 -0.4337494E-01  0.4337494E-01 -0.4337494E-01   0.0000000E+00  0.1000000E+01  0.0000000E+00
           4
  0.4337494E-01 -0.4337494E-01 -0.4337494E-01   0.1000000E+01 -0.0000000E+00 -0.0000000E+00
  0.4337494E-01  0.4337494E-01 -0.4337494E-01   0.1000000E+01 -0.0000000E+00 -0.0000000E+00
  0.4337494E-01  0.4337494E-01  0.4337494E-01   0.1000000E+01 -0.0000000E+00 -0.0000000E+00
  0.4337494E-01 -0.4337494E-01  0.4337494E-01   0.1000000E+01 -0.0000000E+00 -0.0000000E+00
 BRILLOUIN-ZONE-CONVCELL_END
 ATOMS
   29    0.0000000000    0.0000000000    0.0000000000    0.0000000000    0.0000000000    0.0000000000
   32    5.7636954130    5.7636954130    0.0000000000    0.0000000000    0.0000000000    0.0000000000
   32    5.7636954130    0.0000000000    5.7636954130    0.0000000000    0.0000000000    0.0000000000
   32    0.0000000000    5.7636954130    5.7636954130    0.0000000000    0.0000000000    0.0000000000
   32    8.6494259610    8.6494259610    5.7644655470    0.0000157200    0.0000157200    0.0000021300
   32    2.8779648670    2.8779648670    5.7644655470   -0.0000157200   -0.0000157200    0.0000021300
   32    0.0185341540    8.6650569070    8.6650569070    0.0000525800    0.0000020900    0.0000020900
   32    0.0185341540    2.8623339210    2.8623339210    0.0000525800   -0.0000020900   -0.0000020900
   32    5.7629252800    8.6494259610    2.8779648670   -0.0000021300    0.0000157200   -0.0000157200
   32    5.7629252800    2.8779648670    8.6494259610   -0.0000021300   -0.0000157200    0.0000157200
   32    5.7644540200    8.6494259610    8.6494259610    0.0000021300    0.0000157200    0.0000157200
   32    5.7644540200    2.8779648670    2.8779648670    0.0000021300   -0.0000157200   -0.0000157200
   32    8.6650569070    8.6650569070    0.0185456810    0.0000020900    0.0000020900    0.0000525800
   32    8.6494259610    2.8779648670    5.7629368080    0.0000157200   -0.0000157200   -0.0000021300
   32    2.8779648670    8.6494259610    5.7629368080   -0.0000157200    0.0000157200   -0.0000021300
   32    2.8623339210    2.8623339210    0.0185456810   -0.0000020900   -0.0000020900    0.0000525800
   32    8.6494259610    5.7644540200    8.6494259610    0.0000157200    0.0000021300    0.0000157200
   32    2.8779648670    5.7644540200    2.8779648670   -0.0000157200    0.0000021300   -0.0000157200
   32    8.6650569070    0.0185456810    8.6650569070    0.0000020900    0.0000525800    0.0000020900
   32    8.6494259610    5.7629368080    2.8779648670    0.0000157200   -0.0000021300   -0.0000157200
   32    2.8623339210    0.0185456810    2.8623339210   -0.0000020900    0.0000525800   -0.0000020900
   32    2.8779648670    5.7629368080    8.6494259610   -0.0000157200   -0.0000021300    0.0000157200
   32    5.7636954130    5.7636954130    5.7636954130    0.0000000000    0.0000000000    0.0000000000
   32    5.7636954130    0.0000000000    0.0000000000    0.0000000000    0.0000000000    0.0000000000
   32    0.0000000000    5.7636954130    0.0000000000    0.0000000000    0.0000000000    0.0000000000
   32    0.0000000000    0.0000000000    5.7636954130    0.0000000000    0.0000000000    0.0000000000
   32    1.3703636680    1.3703636680    1.3703636680   -0.0000029100   -0.0000029100   -0.0000029100
   32    1.4422444310    7.2062269460    7.2062269460    0.0000915700   -0.0000338500   -0.0000338500
   32    7.2062269460    1.4422444310    7.2062269460   -0.0000338500    0.0000915700   -0.0000338500
   32    7.2062269460    7.2062269460    1.4422444310   -0.0000338500   -0.0000338500    0.0000915700
   32    1.4422444310    4.3211638810    4.3211754090    0.0000915700    0.0000338500    0.0000338500
   32    1.3703636680   10.1570271590   10.1570386860   -0.0000029100    0.0000029100    0.0000029100
   32    7.2062269460    4.3211638810   10.0851579230   -0.0000338500    0.0000338500   -0.0000915700
   32    7.2062269460   10.0851463960    4.3211754090   -0.0000338500   -0.0000915700    0.0000338500
   32    4.3211869360    4.3211869360    1.4422329040    0.0000338500    0.0000338500    0.0000915700
   32    4.3211869360   10.0851694510    7.2062154190    0.0000338500   -0.0000915700   -0.0000338500
   32   10.0851694510    4.3211869360    7.2062154190   -0.0000915700    0.0000338500   -0.0000338500
   32   10.1570502140   10.1570502140    1.3703521410    0.0000029100    0.0000029100   -0.0000029100
   32    4.3211638810    1.4422444310    4.3211754090    0.0000338500    0.0000915700    0.0000338500
   32    4.3211638810    7.2062269460   10.0851579230    0.0000338500   -0.0000338500   -0.0000915700
   32   10.1570271590    1.3703636680   10.1570386860    0.0000029100   -0.0000029100    0.0000029100
   32   10.0851463960    7.2062269460    4.3211754090   -0.0000915700   -0.0000338500    0.0000338500
   32    4.3211797430    4.3211797430    7.2062110840   -0.0000312400   -0.0000312400    0.0000312400
   32    4.3097636260   10.0897611680    1.4376296590    0.0000153000   -0.0000034700    0.0000034700
   32   10.0897611680    4.3097636260    1.4376296590   -0.0000034700    0.0000153000    0.0000034700
   32   10.0897611680   10.0897611680    7.2176272010   -0.0000034700   -0.0000034700   -0.0000153000
   32    7.2062110840    4.3211797430    4.3211912700    0.0000312400   -0.0000312400   -0.0000312400
   32    7.2176272010   10.0897611680   10.0897726950   -0.0000153000   -0.0000034700   -0.0000034700
   32    1.4376296590    4.3097636260   10.0897726950    0.0000034700    0.0000153000   -0.0000034700
   32    1.4376296590   10.0897611680    4.3097751530    0.0000034700   -0.0000034700    0.0000153000
   32    7.2062110840    7.2062110840    7.2062110840    0.0000312400    0.0000312400    0.0000312400
   32    7.2176272010    1.4376296590    1.4376296590   -0.0000153000    0.0000034700    0.0000034700
   32    1.4376296590    7.2176272010    1.4376296590    0.0000034700   -0.0000153000    0.0000034700
   32    1.4376296590    1.4376296590    7.2176272010    0.0000034700    0.0000034700   -0.0000153000
   32    4.3211797430    7.2062110840    4.3211912700   -0.0000312400    0.0000312400   -0.0000312400
   32    4.3097636260    1.4376296590   10.0897726950    0.0000153000    0.0000034700   -0.0000034700
   32   10.0897611680    7.2176272010   10.0897726950   -0.0000034700   -0.0000153000   -0.0000034700
   32   10.0897611680    1.4376296590    4.3097751530   -0.0000034700    0.0000034700    0.0000153000
   29    0.0000000000    0.0000000000   11.5273935820    0.0000000000    0.0000000000    0.0000000000
   32    5.7636954130    5.7636954130   11.5273935820    0.0000000000    0.0000000000    0.0000000000
   32    8.6650569070    2.8623339210   11.5088566730    0.0000020900   -0.0000020900   -0.0000525800
   32    2.8623339210    8.6650569070   11.5088566730   -0.0000020900    0.0000020900   -0.0000525800
   32    5.7636954130    0.0000000000   11.5273935820    0.0000000000    0.0000000000    0.0000000000
   32    0.0000000000    5.7636954130   11.5273935820    0.0000000000    0.0000000000    0.0000000000
   29    0.0000000000   11.5273935820    0.0000000000    0.0000000000    0.0000000000    0.0000000000
   32    5.7636954130   11.5273935820    5.7636954130    0.0000000000    0.0000000000    0.0000000000
   32    8.6650569070   11.5088451460    2.8623339210    0.0000020900   -0.0000525800   -0.0000020900
   32    2.8623339210   11.5088451460    8.6650569070   -0.0000020900   -0.0000525800    0.0000020900
   32    5.7636954130   11.5273935820    0.0000000000    0.0000000000    0.0000000000    0.0000000000
   32    0.0000000000   11.5273935820    5.7636954130    0.0000000000    0.0000000000    0.0000000000
   29    0.0000000000   11.5273935820   11.5273935820    0.0000000000    0.0000000000    0.0000000000
   32    5.7636954130   11.5273935820   11.5273935820    0.0000000000    0.0000000000    0.0000000000
   29   11.5273935820    0.0000000000    0.0000000000    0.0000000000    0.0000000000    0.0000000000
   32   11.5273935820    5.7636954130    5.7636954130    0.0000000000    0.0000000000    0.0000000000
   32   11.5088451460    8.6650569070    2.8623339210   -0.0000525800    0.0000020900   -0.0000020900
   32   11.5088451460    2.8623339210    8.6650569070   -0.0000525800   -0.0000020900    0.0000020900
   32   11.5273935820    5.7636954130    0.0000000000    0.0000000000    0.0000000000    0.0000000000
   32   11.5273935820    0.0000000000    5.7636954130    0.0000000000    0.0000000000    0.0000000000
   29   11.5273935820    0.0000000000   11.5273935820    0.0000000000    0.0000000000    0.0000000000
   32   11.5273935820    5.7636954130   11.5273935820    0.0000000000    0.0000000000    0.0000000000
   29   11.5273935820   11.5273935820    0.0000000000    0.0000000000    0.0000000000    0.0000000000
   32   11.5273935820   11.5273935820    5.7636954130    0.0000000000    0.0000000000    0.0000000000
   29   11.5273935820   11.5273935820   11.5273935820    0.0000000000    0.0000000000    0.0000000000
 FRAMES
1      0.0000000000    0.0000000000    0.0000000000     11.5273935820    0.0000000000    0.0000000000
1      0.0000000000    0.0000000000    0.0000000000      0.0000000000   11.5273935820    0.0000000000
1      0.0000000000    0.0000000000    0.0000000000      0.0000000000    0.0000000000   11.5273935820
1      0.0000000000    0.0000000000   11.5273935820     11.5273935820    0.0000000000   11.5273935820
1      0.0000000000    0.0000000000   11.5273935820      0.0000000000   11.5273935820   11.5273935820
1      0.0000000000   11.5273935820    0.0000000000     11.5273935820   11.5273935820    0.0000000000
1      0.0000000000   11.5273935820    0.0000000000      0.0000000000   11.5273935820   11.5273935820
1      0.0000000000   11.5273935820   11.5273935820     11.5273935820   11.5273935820   11.5273935820