 *******************************************************************************
 ** Cite this program as: MOPAC2016, Version: 22.067 , James J. P. Stewart,   **
 **                           web-site: HTTP://OpenMOPAC.net.                 **
 *******************************************************************************
 **                                                                           **
 **                                MOPAC2016                                  **
 **                                                                           **
 *******************************************************************************

                              AM1 CALCULATION RESULTS

 *******************************************************************************
 *  CALCULATION DONE:                                Wed Jun  8 09:44:32 2022  *
 *  AM1        - The AM1 Hamiltonian to be used
 *
 *
 *
 *                 CHARGE ON SYSTEM = 0
 *
 *
 *
 *  T=         - A TIME OF 172800.0 SECONDS REQUESTED
 *  DUMP=N     - RESTART FILE WRITTEN EVERY 7200.0 SECONDS REQUESTED
 *  PRTCHARGE  - PRINT CHARGES IN ARC FILE
 *******************************************************************************
AM1 CHARGE=0 PRTCHAR


   ATOM   CHEMICAL          X               Y               Z
  NUMBER   SYMBOL      (ANGSTROMS)     (ANGSTROMS)     (ANGSTROMS)
 
     1       C          0.59473000     29.99472000     19.00755000   
     2       C          0.79640000     32.40422000     19.00755000   
     3       C         -1.39112000     31.37412000     19.00755000   
     4       C         25.67883000     15.51241000     30.09615000   
     5       C         27.66468000     16.89181000     30.09615000   
     6       C         27.86635000     14.48231000     30.09615000   
     7       C         27.66470000     45.62355000     35.37543000   
     8       C          0.79642000      1.14652000     35.37543000   
     9       C         52.74880000      0.11642000     35.37543000   
    10       C         -1.39110000     31.14124000     46.46403000   
    11       C          0.59475000     32.52064000     46.46403000   
    12       C          0.79642000     30.11114000     46.46403000   
    13       C         27.66465000     14.36589000      2.63967000   
    14       C         27.86632000     16.77539000      2.63967000   
    15       C         25.67880000     15.74529000      2.63967000   
    16       C         25.67880000     46.77011000     13.72827000   
    17       C          0.59470000      1.26298000     13.72827000   
    18       C        -26.27358000     45.74001000     13.72827000   
    19       C          1.11068000     28.89851000     18.31568000   
    20       C          1.48776000     33.39915000     18.31568000   
    21       C         -2.59844000     31.47540000     18.31568000   
    22       C         24.47151000     15.41113000     30.78802000   
    23       C         28.18063000     17.98802000     30.78802000   
    24       C         28.55771000     13.48738000     30.78802000   
    25       C         28.18066000     44.52734000     34.68356000   
    26       C          1.48779000      2.14145000     34.68356000   
    27       C         51.54148000      0.21769000     34.68356000   
    28       C         -2.59842000     31.03996000     47.15590000   
    29       C          1.11071000     33.61684000     47.15590000   
    30       C          1.48779000     29.11621000     47.15590000   
    31       C         28.18060000     13.26968000      1.94780000   
    32       C         28.55769000     17.77032000      1.94780000   
    33       C         24.47148000     15.84657000      1.94780000   
    34       C         24.47148000     46.66883000     14.42014000   
    35       C          1.11065000      2.35919000     14.42014000   
    36       C        -25.58221000     44.74508000     14.42014000   
    37       C          1.63015000     27.80652000     19.03849000   
    38       C          2.17372000     34.39502000     19.03849000   
    39       C         -3.80387000     31.57151000     19.03849000   
    40       C         23.26608000     15.31502000     30.06521000   
    41       C         28.70010000     19.08000000     30.06521000   
    42       C         29.24367000     12.49151000     30.06521000   
    43       C         28.70013000     43.43535000     35.40637000   
    44       C          2.17374000      3.13732000     35.40637000   
    45       C         50.33606000      0.31381000     35.40637000   
    46       C         -3.80384000     30.94384000     46.43310000   
    47       C          1.63018000     34.70883000     46.43310000   
    48       C          2.17374000     28.12034000     46.43310000   
    49       C         28.70008000     12.17770000      2.67060000   
    50       C         29.24364000     18.76619000      2.67060000   
    51       C         23.26605000     15.94269000      2.67060000   
    52       C         23.26605000     46.57272000     13.69733000   
    53       C          1.63013000      3.45118000     13.69733000   
    54       C        -24.89626000     43.74921000     13.69733000   
    55       C          3.27628000     26.73235000     17.50596000   
    56       C          2.28091000     36.35769000     17.50596000   
    57       C         -5.55719000     30.68301000     17.50596000   
    58       C         21.51276000     16.20352000     31.59774000   
    59       C         30.34623000     20.15417000     31.59774000   
    60       C         29.35086000     10.52884000     31.59774000   
    61       C        -23.79365000     42.36118000     33.87384000   
    62       C          2.28094000      5.09999000     33.87384000   
    63       C         21.51279000     46.31184000     33.87384000   
    64       C         -5.55716000     31.83234000     47.96562000   
    65       C          3.27630000     35.78300000     47.96562000   
    66       C          2.28094000     26.15767000     47.96562000   
    67       C         30.34620000     11.10353000      1.13808000   
    68       C         29.35084000     20.72886000      1.13808000   
    69       C         21.51273000     15.05419000      1.13808000   
    70       C         48.58268000      0.57469000     15.22986000   
    71       C          3.27625000      4.52535000     15.22986000   
    72       C         29.35084000     41.78654000     15.22986000   
    73       C          2.13122000     26.62827000     18.30586000   
    74       C          2.94359000     35.41808000     18.30586000   
    75       C         -5.07480000     31.72671000     18.30586000   
    76       C         21.99515000     15.15982000     30.79784000   
    77       C         29.20117000     20.25826000     30.79784000   
    78       C         30.01354000     11.46844000     30.79784000   
    79       C         29.20119000     42.25709000     34.67374000   
    80       C          2.94361000      4.16038000     34.67374000   
    81       C         49.06512000      0.46901000     34.67374000   
    82       C         -5.07478000     30.78865000     47.16572000   
    83       C          2.13124000     35.88709000     47.16572000   
    84       C          2.94361000     27.09727000     47.16572000   
    85       C         29.20114000     10.99944000      1.93798000   
    86       C         30.01351000     19.78926000      1.93798000   
    87       C         21.99512000     16.09788000      1.93798000   
    88       C         21.99512000     46.41752000     14.42996000   
    89       C          2.13119000      4.62944000     14.42996000   
    90       C        -24.12639000     42.72615000     14.42996000   
    91       C          1.54948000     25.37124000     18.52339000   
    92       C          4.32307000     35.54280000     18.52339000   
    93       C         -5.87255000     32.85902000     18.52339000   
    94       C         21.19740000     14.02751000     30.58031000   
    95       C         28.61943000     21.51529000     30.58031000   
    96       C         31.39302000     11.34373000     30.58031000   
    97       C         28.61946000     41.00007000     34.89127000   
    98       C          4.32310000      4.28510000     34.89127000   
    99       C         48.26737000      1.60132000     34.89127000   
   100       C         -5.87253000     29.65634000     46.94819000   
   101       C          1.54951000     37.14412000     46.94819000   
   102       C          4.32310000     26.97255000     46.94819000   
   103       C         28.61941000      9.74241000      2.15551000   
   104       C         31.39299000     19.91397000      2.15551000   
   105       C         21.19737000     17.23019000      2.15551000   
   106       C         21.19737000     45.28521000     14.21243000   
   107       C          1.54946000      5.88646000     14.21243000   
   108       C        -22.74691000     42.60143000     14.21243000   
   109       C          2.15233000     24.21830000     18.01860000   
   110       C          5.02012000     36.64135000     18.01860000   
   111       C         -7.17245000     32.91341000     18.01860000   
   112       C         19.89750000     13.97312000     31.08510000   
   113       C         29.22228000     22.66823000     31.08510000   
   114       C         32.09007000     10.24518000     31.08510000   
   115       C         29.22231000     39.84713000     34.38649000   
   116       C          5.02015000      5.38365000     34.38649000   
   117       C         46.96747000      1.65570000     34.38649000   
   118       C         -7.17243000     29.60195000     47.45298000   
   119       C          2.15236000     38.29706000     47.45298000   
   120       C          5.02015000     25.87400000     47.45298000   
   121       C         29.22225000      8.58947000      1.65072000   
   122       C         32.09005000     21.01253000      1.65072000   
   123       C         19.89747000     17.28458000      1.65072000   
   124       C         19.89747000     45.23082000     14.71721000   
   125       C          2.15230000      7.03940000     14.71721000   
   126       C        -22.04985000     41.50288000     14.71721000   
   127       C          3.35694000     24.30926000     17.29972000   
   128       C          4.33904000     37.63910000     17.29972000   
   129       C         -7.69599000     31.82470000     17.29972000   
   130       C         19.37396000     15.06183000     31.80398000   
   131       C         30.42689000     22.57727000     31.80398000   
   132       C         31.40899000      9.24743000     31.80398000   
   133       C         30.42692000     39.93809000     33.66761000   
   134       C          4.33907000      6.38140000     33.66761000   
   135       C         46.44394000      0.56700000     33.66761000   
   136       C         -7.69596000     30.69066000     48.17186000   
   137       C          3.35697000     38.20610000     48.17186000   
   138       C          4.33907000     24.87626000     48.17186000   
   139       C         30.42687000      8.68043000      0.93184000   
   140       C         31.40897000     22.01027000      0.93184000   
   141       C         19.37394000     16.19587000      0.93184000   
   142       C         19.37394000     46.31953000     15.43609000   
   143       C          3.35692000      6.94844000     15.43609000   
   144       C        -22.73093000     40.50513000     15.43609000   
   145       C          3.89185000     25.57895000     17.01345000   
   146       C          2.97201000     37.46749000     17.01345000   
   147       C         -6.86386000     30.72662000     17.01345000   
   148       C         20.20609000     16.15991000     32.09025000   
   149       C         30.96180000     21.30758000     32.09025000   
   150       C         30.04196000      9.41903000     32.09025000   
   151       C        -23.17808000     41.20777000     33.38133000   
   152       C          2.97204000      6.20979000     33.38133000   
   153       C         20.20612000     46.35545000     33.38133000   
   154       C         -6.86383000     31.78874000     48.45813000   
   155       C          3.89187000     36.93641000     48.45813000   
   156       C          2.97204000     25.04786000     48.45813000   
   157       C         30.96177000      9.95012000      0.64557000   
   158       C         30.04193000     21.83867000      0.64557000   
   159       C         20.20607000     15.09779000      0.64557000   
   160       C         47.27602000      0.53108000     15.72237000   
   161       C          3.89182000      5.67876000     15.72237000   
   162       C         30.04193000     40.67674000     15.72237000   
   163       C          4.10110000     23.08036000     16.96729000   
   164       C          5.03122000     38.89800000     16.96729000   
   165       C         -9.13232000     31.79469000     16.96729000   
   166       C         17.93763000     15.09184000     32.13641000   
   167       C         31.17105000     23.80617000     32.13641000   
   168       C         32.10117000      7.98853000     32.13641000   
   169       C         31.17107000     38.70919000     33.33518000   
   170       C          5.03125000      7.64030000     33.33518000   
   171       C         45.00761000      0.53699000     33.33518000   
   172       C         -9.13229000     30.72066000     48.50429000   
   173       C          4.10112000     39.43499000     48.50429000   
   174       C          5.03125000     23.61735000     48.50429000   
   175       C         31.17102000      7.45154000      0.59941000   
   176       C         32.10114000     23.26917000      0.59941000   
   177       C         17.93760000     16.16587000      0.59941000   
   178       C         17.93760000     46.34954000     15.76852000   
   179       C          4.10107000      8.17734000     15.76852000   
   180       C        -22.03876000     39.24623000     15.76852000   
   181       C          7.50460000     22.25282000     15.92826000   
   182       C          4.04615000     42.25930000     15.92826000   
   183       C        -11.55075000     29.26094000     15.92826000   
   184       C         15.51920000     17.62558000     33.17544000   
   185       C         34.57455000     24.63371000     33.17544000   
   186       C         31.11610000      4.62723000     33.17544000   
   187       C        -19.56532000     37.88164000     32.29614000   
   188       C          4.04617000     11.00160000     32.29614000   
   189       C         15.51923000     44.88977000     32.29614000   
   190       C        -11.55072000     33.25441000      0.43963000   
   191       C          7.50463000     40.26254000      0.43963000   
   192       C          4.04617000     20.25606000      0.43963000   
   193       C         34.57453000      6.62399000     48.66407000   
   194       C         31.11607000     26.63047000     48.66407000   
   195       C         15.51918000     13.63212000     48.66407000   
   196       C         42.58913000      1.99676000     16.80756000   
   197       C          7.50458000      9.00489000     16.80756000   
   198       C         31.11607000     35.88493000     16.80756000   
   199       C          6.25532000     22.02635000     16.51701000   
   200       C          4.86691000     41.29062000     16.51701000   
   201       C        -11.12223000     30.45608000     16.51701000   
   202       C         15.94772000     16.43045000     32.58669000   
   203       C         33.32527000     24.86018000     32.58669000   
   204       C         31.93686000      5.59591000     32.58669000   
   205       C        -20.81460000     37.65518000     32.88490000   
   206       C          4.86693000     10.03292000     32.88490000   
   207       C         15.94775000     46.08491000     32.88490000   
   208       C        -11.12220000     32.05927000     48.95457000   
   209       C          6.25535000     40.48900000     48.95457000   
   210       C          4.86693000     21.22473000     48.95457000   
   211       C         33.32525000      6.39753000      0.14913000   
   212       C         31.93683000     25.66179000      0.14913000   
   213       C         15.94769000     14.82726000      0.14913000   
   214       C         43.01764000      0.80162000     16.21880000   
   215       C          6.25530000      9.23135000     16.21880000   
   216       C         31.93683000     36.85361000     16.21880000   
   217       C          5.97028000     20.75432000     17.05028000   
   218       C          6.11104000     41.67978000     17.05028000   
   219       C        -12.08132000     31.33896000     17.05028000   
   220       C         14.98863000     15.54757000     32.05342000   
   221       C         33.04023000     26.13221000     32.05342000   
   222       C         33.18099000      5.20675000     32.05342000   
   223       C         33.04025000     36.38315000     33.41816000   
   224       C          6.11107000     10.42208000     33.41816000   
   225       C         42.05861000      0.08125000     33.41816000   
   226       C        -12.08129000     31.17640000     48.42131000   
   227       C          5.97030000     41.76103000     48.42131000   
   228       C          6.11107000     20.83558000     48.42131000   
   229       C         33.04020000      5.12549000      0.68239000   
   230       C         33.18096000     26.05095000      0.68239000   
   231       C         14.98860000     15.71013000      0.68239000   
   232       C         14.98860000     46.80527000     15.68554000   
   233       C          5.97025000     10.50338000     15.68554000   
   234       C        -20.95894000     36.46445000     15.68554000   
   235       C          6.92206000     19.73595000     16.99086000   
   236       C          6.51709000     43.01323000     16.99086000   
   237       C        -13.43915000     31.02388000     16.99086000   
   238       C         13.63080000     15.86265000     32.11284000   
   239       C         33.99201000     27.15058000     32.11284000   
   240       C         33.58704000      3.87330000     32.11284000   
   241       C        -20.14787000     35.36477000     33.35875000   
   242       C          6.51712000     11.75553000     33.35875000   
   243       C         13.63083000     46.65271000     33.35875000   
   244       C        -13.43912000     31.49148000     48.48072000   
   245       C          6.92208000     42.77941000     48.48072000   
   246       C          6.51712000     19.50212000     48.48072000   
   247       C         33.99198000      4.10712000      0.62298000   
   248       C         33.58701000     27.38441000      0.62298000   
   249       C         13.63078000     15.39505000      0.62298000   
   250       C         40.70073000      0.23382000     15.74495000   
   251       C          6.92203000     11.52175000     15.74495000   
   252       C         33.58701000     35.13100000     15.74495000   
   253       C          8.17783000     19.96616000     16.40702000   
   254       C          5.68983000     43.98566000     16.40702000   
   255       C        -13.86766000     29.82124000     16.40702000   
   256       C         13.20229000     17.06529000     32.69668000   
   257       C         35.24778000     26.92037000     32.69668000   
   258       C         32.75978000      2.90087000     32.69668000   
   259       C        -18.89209000     35.59499000     32.77490000   
   260       C          5.68986000     12.72796000     32.77490000   
   261       C         13.20231000     45.45007000     32.77490000   
   262       C        -13.86764000     32.69412000     49.06456000   
   263       C          8.17786000     42.54920000     49.06456000   
   264       C          5.68986000     18.52970000     49.06456000   
   265       C         35.24775000      4.33733000      0.03914000   
   266       C         32.75976000     28.35683000      0.03914000   
   267       C         13.20226000     14.19241000      0.03914000   
   268       C         40.27221000      1.43646000     16.32880000   
   269       C          8.17780000     11.29154000     16.32880000   
   270       C         32.75976000     34.15857000     16.32880000   
   271       C          8.45990000     21.23491000     15.86639000   
   272       C          4.45003000     43.59556000     15.86639000   
   273       C        -12.90993000     28.94259000     15.86639000   
   274       C         14.16002000     17.94394000     33.23731000   
   275       C         35.52985000     25.65162000     33.23731000   
   276       C         31.51998000      3.29097000     33.23731000   
   277       C        -18.61002000     36.86374000     32.23427000   
   278       C          4.45006000     12.33786000     32.23427000   
   279       C         14.16005000     44.57141000     32.23427000   
   280       C        -12.90990000     33.57277000      0.50150000   
   281       C          8.45993000     41.28045000      0.50150000   
   282       C          4.45006000     18.91979000      0.50150000   
   283       C         35.52982000      5.60608000     48.60220000   
   284       C         31.51995000     27.96674000     48.60220000   
   285       C         14.15999000     13.31376000     48.60220000   
   286       C         41.22994000      2.31512000     16.86943000   
   287       C          8.45987000     10.02279000     16.86943000   
   288       C         31.51995000     34.54867000     16.86943000   
   289       C         11.15201000     16.83930000     16.36788000   
   290       C         33.98064000      1.23827000     16.36788000   
   291       C         36.07721000     28.80896000     16.36788000   
   292       C          9.00726000     18.07757000     32.73582000   
   293       C        -15.91794000     30.04723000     32.73582000   
   294       C          6.91069000     45.64826000     32.73582000   
   295       C        -15.91792000     32.46812000     32.73582000   
   296       C          6.91071000     16.86710000     32.73582000   
   297       C          9.00728000     44.43779000     32.73582000   
   298       C        -18.06267000     33.70640000      0.00000000   
   299       C         11.15203000     45.67606000      0.00000000   
   300       C          6.91071000     14.39055000      0.00000000   
   301       C         38.22193000      1.21047000      0.00000000   
   302       C         33.98061000     32.49597000      0.00000000   
   303       C          9.00723000     13.18013000      0.00000000   
   304       C         36.07718000      2.44874000     16.36788000   
   305       C         11.15198000     14.41840000     16.36788000   
   306       C         33.98061000     30.01943000     16.36788000   
   307       C          7.81293000     19.93803000     30.74039000   
   308       C          5.89665000     43.68371000     30.74039000   
   309       C        -13.70958000     30.15132000     30.74039000   
   310       C         13.36037000     16.73521000     18.36331000   
   311       C         34.88288000     26.94850000     18.36331000   
   312       C         32.96660000      3.20282000     18.36331000   
   313       C        -19.25699000     35.56685000     47.10827000   
   314       C          5.89667000     12.42601000     47.10827000   
   315       C         13.36040000     45.78015000     47.10827000   
   316       C        -13.70955000     32.36404000     34.73119000   
   317       C          7.81296000     42.57733000     34.73119000   
   318       C          5.89667000     18.83165000     34.73119000   
   319       C         34.88285000      4.30920000     14.37251000   
   320       C         32.96657000     28.05488000     14.37251000   
   321       C         13.36035000     14.52249000     14.37251000   
   322       C         40.43030000      1.10638000      1.99543000   
   323       C          7.81290000     11.31967000      1.99543000   
   324       C         32.96657000     34.46052000      1.99543000   
   325       C          6.96862000     19.12080000     31.52507000   
   326       C          7.02655000     43.36113000     31.52507000   
   327       C        -13.99516000     31.29113000     31.52507000   
   328       C         13.07479000     15.59540000     17.57863000   
   329       C         34.03857000     27.76573000     17.57863000   
   330       C         34.09650000      3.52540000     17.57863000   
   331       C         34.03859000     34.74962000     47.89295000   
   332       C          7.02657000     12.10343000     47.89295000   
   333       C         40.14476000      0.03343000     47.89295000   
   334       C        -13.99514000     31.22422000     33.94652000   
   335       C          6.96864000     43.39456000     33.94652000   
   336       C          7.02657000     19.15423000     33.94652000   
   337       C         34.03854000      3.49197000     15.15718000   
   338       C         34.09647000     27.73230000     15.15718000   
   339       C         13.07476000     15.66230000     15.15718000   
   340       C         13.07476000     46.85310000      1.21075000   
   341       C          6.96859000     12.13691000      1.21075000   
   342       C        -20.04343000     34.78310000      1.21075000   
   343       C          5.58020000     19.17847000     31.27366000   
   344       C          7.67081000     42.12989000     31.27366000   
   345       C        -13.25101000     32.46470000     31.27366000   
   346       C         13.81894000     14.42183000     17.83004000   
   347       C         32.65015000     27.70806000     17.83004000   
   348       C         34.74076000      4.75664000     17.83004000   
   349       C         32.65018000     34.80729000     47.64154000   
   350       C          7.67084000     10.87219000     47.64154000   
   351       C         40.88892000      1.20700000     47.64154000   
   352       C        -13.25098000     30.05065000     34.19793000   
   353       C          5.58023000     43.33689000     34.19793000   
   354       C          7.67084000     20.38547000     34.19793000   
   355       C         32.65012000      3.54964000     14.90577000   
   356       C         34.74073000     26.50106000     14.90577000   
   357       C         13.81891000     16.83587000     14.90577000   
   358       C         13.81891000     45.67953000      1.46216000   
   359       C          5.58017000     12.07924000      1.46216000   
   360       C        -19.39917000     36.01434000      1.46216000   
   361       C          5.06831000     19.93287000     30.21891000   
   362       C          7.27342000     41.30938000     30.21891000   
   363       C        -12.34173000     32.53081000     30.21891000   
   364       C         14.72822000     14.35572000     18.88479000   
   365       C         32.13826000     26.95366000     18.88479000   
   366       C         34.34337000      5.57715000     18.88479000   
   367       C         32.13828000     35.56170000     46.58679000   
   368       C          7.27345000     10.05167000     46.58679000   
   369       C         41.79820000      1.27311000     46.58679000   
   370       C        -12.34170000     29.98454000     35.25268000   
   371       C          5.06833000     42.58249000     35.25268000   
   372       C          7.27345000     21.20598000     35.25268000   
   373       C         32.13823000      4.30404000     13.85102000   
   374       C         34.34335000     25.68055000     13.85102000   
   375       C         14.72819000     16.90198000     13.85102000   
   376       C         14.72819000     45.61342000      2.51691000   
   377       C          5.06828000     11.32483000      2.51691000   
   378       C        -19.79655000     36.83485000      2.51691000   
   379       C          5.92209000     20.69524000     29.41017000   
   380       C          6.18630000     41.66759000     29.41017000   
   381       C        -12.10839000     31.41022000     29.41017000   
   382       C         14.96156000     15.47631000     19.69353000   
   383       C         32.99204000     26.19128000     19.69353000   
   384       C         33.25625000      5.21894000     19.69353000   
   385       C         32.99207000     36.32407000     45.77805000   
   386       C          6.18632000     10.40989000     45.77805000   
   387       C         42.03154000      0.15252000     45.77805000   
   388       C        -12.10836000     31.10513000     36.06141000   
   389       C          5.92212000     41.82011000     36.06141000   
   390       C          6.18632000     20.84777000     36.06141000   
   391       C         32.99202000      5.06642000     13.04229000   
   392       C         33.25622000     26.03876000     13.04229000   
   393       C         14.96153000     15.78140000     13.04229000   
   394       C         14.96153000     46.73401000      3.32565000   
   395       C          5.92207000     10.56246000      3.32565000   
   396       C        -20.88368000     36.47664000      3.32565000   
   397       C          7.29806000     20.69571000     29.68466000   
   398       C          5.49791000     42.85898000     29.68466000   
   399       C        -12.79597000     30.21837000     29.68466000   
   400       C         14.27398000     16.66816000     19.41904000   
   401       C         34.36801000     26.19081000     19.41904000   
   402       C         32.56786000      4.02755000     19.41904000   
   403       C        -19.77186000     36.32454000     46.05254000   
   404       C          5.49793000     11.60127000     46.05254000   
   405       C         14.27401000     45.84720000     46.05254000   
   406       C        -12.79594000     32.29699000     35.78692000   
   407       C          7.29809000     41.81964000     35.78692000   
   408       C          5.49793000     19.65638000     35.78692000   
   409       C         34.36798000      5.06689000     13.31678000   
   410       C         32.56783000     27.23015000     13.31678000   
   411       C         14.27396000     14.58954000     13.31678000   
   412       C         41.34391000      1.03933000      3.05116000   
   413       C          7.29803000     10.56199000      3.05116000   
   414       C         32.56783000     35.28525000      3.05116000   
   415       C          4.23997000     22.30533000     28.46345000   
   416       C          5.63299000     39.40578000     28.46345000   
   417       C         -9.87295000     32.06195000     28.46345000   
   418       C         17.19700000     14.82458000     20.64025000   
   419       C         31.30992000     24.58120000     20.64025000   
   420       C         32.70294000      7.48075000     20.64025000   
   421       C         31.30994000     37.93416000     44.83133000   
   422       C          5.63301000      8.14808000     44.83133000   
   423       C         44.26697000      0.80424000     44.83133000   
   424       C         -9.87293000     30.45341000     37.00813000   
   425       C          4.23999000     40.21003000     37.00813000   
   426       C          5.63301000     23.10957000     37.00813000   
   427       C         31.30989000      6.67650000     12.09557000   
   428       C         32.70291000     23.77696000     12.09557000   
   429       C         17.19697000     16.43312000     12.09557000   
   430       C         17.19697000     46.08228000      4.27237000   
   431       C          4.23994000      8.95237000      4.27237000   
   432       C        -21.43699000     38.73845000      4.27237000   
   433       C          5.37636000     21.49419000     28.28766000   
   434       C          5.76725000     40.79550000     28.28766000   
   435       C        -11.14362000     31.48337000     28.28766000   
   436       C         15.92633000     15.40316000     20.81604000   
   437       C         32.44631000     25.39234000     20.81604000   
   438       C         32.83720000      6.09103000     20.81604000   
   439       C         32.44634000     37.12302000     44.65554000   
   440       C          5.76728000      9.53780000     44.65554000   
   441       C         42.99631000      0.22566000     44.65554000   
   442       C        -11.14359000     31.03199000     37.18392000   
   443       C          5.37639000     41.02116000     37.18392000   
   444       C          5.76728000     21.71986000     37.18392000   
   445       C         32.44629000      5.86536000     11.91978000   
   446       C         32.83718000     25.16667000     11.91978000   
   447       C         15.92631000     15.85454000     11.91978000   
   448       C         15.92631000     46.66086000      4.44816000   
   449       C          5.37634000      9.76351000      4.44816000   
   450       C        -21.30272000     37.34873000      4.44816000   
   451       C          5.98354000     21.43746000     27.02128000   
   452       C          5.51280000     41.34970000     27.02128000   
   453       C        -11.49634000     30.98590000     27.02128000   
   454       C         15.57361000     15.90063000     22.08242000   
   455       C         33.05349000     25.44907000     22.08242000   
   456       C         32.58275000      5.53683000     22.08242000   
   457       C        -21.08638000     37.06629000     43.38916000   
   458       C          5.51282000     10.09200000     43.38916000   
   459       C         15.57364000     46.61473000     43.38916000   
   460       C        -11.49631000     31.52946000     38.45031000   
   461       C          5.98357000     41.07790000     38.45031000   
   462       C          5.51282000     21.16566000     38.45031000   
   463       C         33.05346000      5.80863000     10.65339000   
   464       C         32.58272000     25.72087000     10.65339000   
   465       C         15.57359000     15.35707000     10.65339000   
   466       C         42.64354000      0.27180000      5.71454000   
   467       C          5.98351000      9.82024000      5.71454000   
   468       C         32.58272000     36.79453000      5.71454000   
   469       C          5.46353000     22.16936000     25.94934000   
   470       C          5.13896000     40.53340000     25.94934000   
   471       C        -10.60249000     31.07030000     25.94934000   
   472       C         16.46746000     15.81623000     23.15436000   
   473       C         32.53348000     24.71717000     23.15436000   
   474       C         32.20891000      6.35312000     23.15436000   
   475       C        -21.60639000     37.79818000     42.31722000   
   476       C          5.13899000      9.27570000     42.31722000   
   477       C         16.46749000     46.69912000     42.31722000   
   478       C        -10.60246000     31.44506000     39.52224000   
   479       C          5.46356000     40.34600000     39.52224000   
   480       C          5.13899000     21.98195000     39.52224000   
   481       C         32.53345000      6.54053000      9.58146000   
   482       C         32.20888000     24.90458000      9.58146000   
   483       C         16.46744000     15.44147000      9.58146000   
   484       C         43.53739000      0.18741000      6.78648000   
   485       C          5.46350000      9.08834000      6.78648000   
   486       C         32.20888000     37.61083000      6.78648000   
   487       C          4.32821000     22.98143000     26.13053000   
   488       C          5.00334000     39.14416000     26.13053000   
   489       C         -9.33155000     31.64747000     26.13053000   
   490       C         17.73840000     15.23906000     22.97317000   
   491       C         31.39816000     23.90510000     22.97317000   
   492       C         32.07329000      7.74237000     22.97317000   
   493       C         31.39819000     38.61026000     42.49842000   
   494       C          5.00337000      7.88645000     42.49842000   
   495       C         44.80837000      0.38977000     42.49842000   
   496       C         -9.33153000     30.86789000     39.34105000   
   497       C          4.32824000     39.53392000     39.34105000   
   498       C          5.00337000     23.37120000     39.34105000   
   499       C         31.39814000      7.35260000      9.76265000   
   500       C         32.07326000     23.51533000      9.76265000   
   501       C         17.73837000     16.01864000      9.76265000   
   502       C         17.73837000     46.49676000      6.60528000   
   503       C          4.32819000      8.27627000      6.60528000   
   504       C        -22.06664000     39.00007000      6.60528000   
   505       C          3.72104000     23.03254000     27.39004000   
   506       C          5.26267000     38.59277000     27.39004000   
   507       C         -8.98370000     32.14775000     27.39004000   
   508       C         18.08625000     14.73878000     21.71366000   
   509       C         30.79099000     23.85399000     21.71366000   
   510       C         32.33262000      8.29376000     21.71366000   
   511       C         30.79101000     38.66137000     43.75793000   
   512       C          5.26270000      7.33507000     43.75793000   
   513       C         45.15622000      0.89005000     43.75793000   
   514       C         -8.98368000     30.36761000     38.08154000   
   515       C          3.72106000     39.48282000     38.08154000   
   516       C          5.26270000     23.92259000     38.08154000   
   517       C         30.79096000      7.40371000     11.02216000   
   518       C         32.33259000     22.96394000     11.02216000   
   519       C         18.08622000     16.51892000     11.02216000   
   520       C         18.08622000     45.99648000      5.34577000   
   521       C          3.72101000      8.22516000      5.34577000   
   522       C        -21.80731000     39.55146000      5.34577000   
   523       C          4.29817000     24.06404000     23.93462000   
   524       C          4.08079000     38.57683000     23.93462000   
   525       C         -8.37896000     31.13219000     23.93462000   
   526       C         18.69099000     15.75434000     25.16908000   
   527       C         31.36812000     22.82249000     25.16908000   
   528       C         31.15074000      8.30970000     25.16908000   
   529       C        -22.77176000     39.69287000     40.30250000   
   530       C          4.08082000      7.31913000     40.30250000   
   531       C         18.69102000     46.76101000     40.30250000   
   532       C         -8.37893000     31.38317000     41.53697000   
   533       C          4.29819000     38.45131000     41.53697000   
   534       C          4.08082000     23.93853000     41.53697000   
   535       C         31.36809000      8.43521000      7.56673000   
   536       C         31.15072000     22.94800000      7.56673000   
   537       C         18.69096000     15.50336000      7.56673000   
   538       C         45.76091000      0.12552000      8.80120000   
   539       C          4.29814000      7.19366000      8.80120000   
   540       C         31.15072000     39.56740000      8.80120000   
   541       C          2.29824000     26.77596000     21.27172000   
   542       C          2.73217000     35.48888000     21.27172000   
   543       C         -5.03041000     31.50822000     21.27172000   
   544       C         22.03954000     15.37831000     27.83198000   
   545       C         29.36819000     20.11057000     27.83198000   
   546       C         29.80212000     11.39765000     27.83198000   
   547       C         29.36822000     42.40479000     37.63961000   
   548       C          2.73220000      4.23118000     37.63961000   
   549       C         49.10952000      0.25051000     37.63961000   
   550       C         -5.03038000     31.00714000     44.19986000   
   551       C          2.29827000     35.73940000     44.19986000   
   552       C          2.73220000     27.02647000     44.19986000   
   553       C         29.36816000     11.14713000      4.90384000   
   554       C         29.80209000     19.86006000      4.90384000   
   555       C         22.03951000     15.87939000      4.90384000   
   556       C         22.03951000     46.63601000     11.46409000   
   557       C          2.29821000      4.48174000     11.46409000   
   558       C        -24.33781000     42.65535000     11.46409000   
   559       C          1.65560000     27.83935000     20.45989000   
   560       C          2.13257000     34.40065000     20.45989000   
   561       C         -3.78817000     31.53307000     20.45989000   
   562       C         23.28178000     15.35346000     28.64381000   
   563       C         28.72555000     19.04718000     28.64381000   
   564       C         29.20252000     12.48588000     28.64381000   
   565       C         28.72558000     43.46817000     36.82778000   
   566       C          2.13260000      3.14294000     36.82778000   
   567       C         50.35176000      0.27536000     36.82778000   
   568       C         -3.78814000     30.98229000     45.01174000   
   569       C          1.65563000     34.67601000     45.01174000   
   570       C          2.13260000     28.11471000     45.01174000   
   571       C         28.72552000     12.21052000      4.09196000   
   572       C         29.20249000     18.77182000      4.09196000   
   573       C         23.28175000     15.90424000      4.09196000   
   574       C         23.28175000     46.61116000     12.27593000   
   575       C          1.65557000      3.41836000     12.27593000   
   576       C        -24.93741000     43.74358000     12.27593000   
   577       C          1.11609000     28.94165000     21.14454000   
   578       C          1.44770000     33.38227000     21.14454000   
   579       C         -2.56379000     31.44914000     21.14454000   
   580       C         24.50616000     15.43739000     27.95916000   
   581       C         28.18604000     17.94488000     27.95916000   
   582       C         28.51765000     13.50426000     27.95916000   
   583       C         28.18607000     44.57047000     37.51243000   
   584       C          1.44773000      2.12457000     37.51243000   
   585       C         51.57613000      0.19144000     37.51243000   
   586       C         -2.56377000     31.06622000     44.32704000   
   587       C          1.11612000     33.57371000     44.32704000   
   588       C          1.44773000     29.13309000     44.32704000   
   589       C         28.18602000     13.31282000      4.77666000   
   590       C         28.51762000     17.75344000      4.77666000   
   591       C         24.50613000     15.82031000      4.77666000   
   592       C         24.50613000     46.69509000     11.59127000   
   593       C          1.11607000      2.31605000     11.59127000   
   594       C        -25.62228000     44.76196000     11.59127000   
   595       C          0.59094000     30.00410000     20.42419000   
   596       C          0.79017000     32.39625000     20.42419000   
   597       C         -1.38111000     31.37271000     20.42419000   
   598       C         25.68884000     15.51381000     28.67951000   
   599       C         27.66089000     16.88243000     28.67951000   
   600       C         27.86012000     14.49028000     28.67951000   
   601       C         27.66091000     45.63292000     36.79208000   
   602       C          0.79020000      1.13855000     36.79208000   
   603       C         52.75882000      0.11501000     36.79208000   
   604       C         -1.38108000     31.14264000     45.04739000   
   605       C          0.59096000     32.51126000     45.04739000   
   606       C          0.79020000     30.11911000     45.04739000   
   607       C         27.66086000     14.37527000      4.05631000   
   608       C         27.86009000     16.76742000      4.05631000   
   609       C         25.68881000     15.74389000      4.05631000   
   610       C         25.68881000     46.77152000     12.31162000   
   611       C          0.59091000      1.25361000     12.31162000   
   612       C        -26.27981000     45.74798000     12.31162000   
   613       C          1.59767000     26.17769000     22.32843000   
   614       C          3.60057000     35.18131000     22.32843000   
   615       C         -5.19824000     32.41406000     22.32843000   
   616       C         21.87171000     14.47246000     26.77527000   
   617       C         28.66762000     20.70884000     26.77527000   
   618       C         30.67052000     11.70522000     26.77527000   
   619       C         28.66765000     41.80651000     38.69632000   
   620       C          3.60060000      3.92361000     38.69632000   
   621       C         48.94168000      1.15636000     38.69632000   
   622       C         -5.19822000     30.10129000     43.14315000   
   623       C          1.59770000     36.33767000     43.14315000   
   624       C          3.60060000     27.33405000     43.14315000   
   625       C         28.66759000     10.54886000      5.96055000   
   626       C         30.67050000     19.55248000      5.96055000   
   627       C         21.87168000     16.78524000      5.96055000   
   628       C         21.87168000     45.73017000     10.40738000   
   629       C          1.59764000      5.08001000     10.40738000   
   630       C        -23.46940000     42.96292000     10.40738000   
   631       C          2.23544000     25.26996000     23.17449000   
   632       C          4.06780000     36.18749000     23.17449000   
   633       C         -6.30324000     32.31560000     23.17449000   
   634       C         20.76671000     14.57093000     25.92921000   
   635       C         29.30539000     21.61657000     25.92921000   
   636       C         31.13775000     10.69904000     25.92921000   
   637       C         29.30541000     40.89879000     39.54237000   
   638       C          4.06783000      4.92979000     39.54237000   
   639       C         47.83669000      1.05790000     39.54237000   
   640       C         -6.30321000     30.19975000     42.29709000   
   641       C          2.23546000     37.24539000     42.29709000   
   642       C          4.06783000     26.32786000     42.29709000   
   643       C         29.30536000      9.64114000      6.80661000   
   644       C         31.13772000     20.55866000      6.80661000   
   645       C         20.76669000     16.68677000      6.80661000   
   646       C         20.76669000     45.82863000      9.56133000   
   647       C          2.23541000      5.98774000      9.56133000   
   648       C        -23.00218000     41.95674000      9.56133000   
   649       C          3.58948000     24.94176000     22.97955000   
   650       C          3.67502000     37.52423000     22.97955000   
   651       C         -7.26449000     31.30707000     22.97955000   
   652       C         19.80546000     15.57946000     26.12415000   
   653       C         30.65943000     21.94477000     26.12415000   
   654       C         30.74497000      9.36230000     26.12415000   
   655       C         30.65945000     40.57059000     39.34743000   
   656       C          3.67504000      6.26653000     39.34743000   
   657       C         46.87544000      0.04937000     39.34743000   
   658       C         -7.26446000     31.20828000     42.49203000   
   659       C          3.58950000     37.57360000     42.49203000   
   660       C          3.67504000     24.99113000     42.49203000   
   661       C         30.65940000      9.31293000      6.61167000   
   662       C         30.74494000     21.89540000      6.61167000   
   663       C         19.80543000     15.67825000      6.61167000   
   664       C         19.80543000     46.83716000      9.75627000   
   665       C          3.58945000      6.31594000      9.75627000   
   666       C        -23.39496000     40.62000000      9.75627000   
   667       C          3.64172000     26.42853000     21.05665000   
   668       C          2.36131000     36.82609000     21.05665000   
   669       C         -6.00303000     30.51844000     21.05665000   
   670       C         21.06692000     16.36809000     28.04705000   
   671       C         30.71167000     20.45800000     28.04705000   
   672       C         29.43126000     10.06044000     28.04705000   
   673       C        -23.42820000     42.05736000     37.42453000   
   674       C          2.36134000      5.56838000     37.42453000   
   675       C         21.06694000     46.14727000     37.42453000   
   676       C         -6.00301000     31.99691000     44.41493000   
   677       C          3.64175000     36.08683000     44.41493000   
   678       C          2.36134000     25.68927000     44.41493000   
   679       C         30.71164000     10.79970000      4.68877000   
   680       C         29.43123000     21.19726000      4.68877000   
   681       C         21.06689000     14.88961000      4.68877000   
   682       C         48.13684000      0.73926000     11.67917000   
   683       C          3.64169000      4.82917000     11.67917000   
   684       C         29.43123000     41.31814000     11.67917000   
   685       C          4.28057000     25.50955000     21.89485000   
   686       C          2.83774000     37.83884000     21.89485000   
   687       C         -7.11831000     30.42467000     21.89485000   
   688       C         19.95164000     16.46186000     27.20885000   
   689       C         31.35052000     21.37698000     27.20885000   
   690       C         29.90769000      9.04769000     27.20885000   
   691       C        -22.78935000     41.13838000     38.26273000   
   692       C          2.83777000      6.58113000     38.26273000   
   693       C         19.95166000     46.05350000     38.26273000   
   694       C         -7.11829000     32.09069000     43.57673000   
   695       C          4.28060000     37.00580000     43.57673000   
   696       C          2.83777000     24.67652000     43.57673000   
   697       C         31.35049000      9.88073000      5.52697000   
   698       C         29.90767000     22.21001000      5.52697000   
   699       C         19.95161000     14.79584000      5.52697000   
   700       C         47.02156000      0.83303000     10.84097000   
   701       C          4.28054000      5.74815000     10.84097000   
   702       C         29.90767000     40.30539000     10.84097000   
   703       C          9.62716000     17.56557000     31.56288000   
   704       C          7.04414000     46.44111000     31.56288000   
   705       C        -16.67130000     29.76638000     31.56288000   
   706       C         10.39865000     17.12015000     17.54082000   
   707       C         36.69711000     29.32096000     17.54082000   
   708       C         34.11409000      0.44542000     17.54082000   
   709       C        -17.44277000     33.19440000     47.93076000   
   710       C          7.04417000     15.18341000     47.93076000   
   711       C         10.39868000     45.39521000     47.93076000   
   712       C        -16.67127000     32.74897000     33.90871000   
   713       C          9.62718000     44.94979000     33.90871000   
   714       C          7.04417000     16.07425000     33.90871000   
   715       C         36.69708000      1.93674000     15.19499000   
   716       C         34.11407000     30.81228000     15.19499000   
   717       C         10.39862000     14.13755000     15.19499000   
   718       C         37.46857000      1.49132000      1.17294000   
   719       C          9.62713000     13.69213000      1.17294000   
   720       C         34.11407000     31.70312000      1.17294000   
   721       C         10.98742000     17.25377000     31.55060000   
   722       C         33.70398000      0.88850000     31.55060000   
   723       C         36.51845000     28.74426000     31.55060000   
   724       C          9.44850000     18.14227000     17.55310000   
   725       C        -16.08253000     29.63276000     17.55310000   
   726       C          6.63403000     45.99803000     17.55310000   
   727       C        -16.08250000     32.88260000     47.91848000   
   728       C          6.63406000     16.51733000     47.91848000   
   729       C          9.44852000     44.37308000     47.91848000   
   730       C        -17.62143000     33.77110000     33.92098000   
   731       C         10.98745000     45.26158000     33.92098000   
   732       C          6.63406000     14.74033000     33.92098000   
   733       C         38.05734000      1.62495000     15.18272000   
   734       C         33.70396000     32.14620000     15.18272000   
   735       C          9.44847000     13.11543000     15.18272000   
   736       C         36.51842000      2.51345000      1.18522000   
   737       C         10.98739000     14.00393000      1.18522000   
   738       C         33.70396000     30.36920000      1.18522000   
   739       C         11.76216000     17.40756000     32.70847000   
   740       C         33.18343000      1.48255000     32.70847000   
   741       C         36.26426000     27.99642000     32.70847000   
   742       C          9.19431000     18.89011000     16.39523000   
   743       C        -15.30779000     29.47897000     16.39523000   
   744       C          6.11348000     45.40398000     16.39523000   
   745       C        -15.30776000     33.03639000     49.07635000   
   746       C          6.11350000     17.11138000     49.07635000   
   747       C          9.19434000     43.62524000     49.07635000   
   748       C        -17.87561000     34.51894000     32.76312000   
   749       C         11.76219000     45.10779000     32.76312000   
   750       C          6.11350000     14.14628000     32.76312000   
   751       C         38.83209000      1.77873000     16.34058000   
   752       C         33.18340000     32.74025000     16.34058000   
   753       C          9.19428000     12.36759000     16.34058000   
   754       C         36.26423000      3.26129000      0.02735000   
   755       C         11.76214000     13.85014000      0.02735000   
   756       C         33.18340000     29.77515000      0.02735000   
   757       C         11.14713000     17.85392000     33.88499000   
   758       C         33.10438000      0.72674000     33.88499000   
   759       C         36.95833000     28.30587000     33.88499000   
   760       C          9.88838000     18.58066000     15.21871000   
   761       C        -15.92282000     29.03261000     15.21871000   
   762       C          6.03443000     46.15979000     15.21871000   
   763       C        -15.92279000     33.48275000      1.14917000   
   764       C          6.03446000     16.35557000      1.14917000   
   765       C          9.88841000     43.93469000      1.14917000   
   766       C        -17.18154000     34.20949000     31.58659000   
   767       C         11.14716000     44.66143000     31.58659000   
   768       C          6.03446000     14.90209000     31.58659000   
   769       C         38.21706000      2.22509000     17.51711000   
   770       C         33.10436000     31.98444000     17.51711000   
   771       C          9.88835000     12.67704000     17.51711000   
   772       C         36.95830000      2.95184000     47.95453000   
   773       C         11.14711000     13.40378000     47.95453000   
   774       C         33.10436000     30.53096000     47.95453000   
   775       C          9.78741000     18.16478000     33.89923000   
   776       C          6.44508000     46.28029000     33.89923000   
   777       C        -16.23250000     29.32799000     33.89923000   
   778       C         10.83745000     17.55854000     15.20447000   
   779       C         36.85736000     28.72175000     15.20447000   
   780       C         33.51503000      0.60624000     15.20447000   
   781       C        -17.28251000     33.79361000      1.16341000   
   782       C          6.44511000     15.02258000      1.16341000   
   783       C         10.83748000     44.95682000      1.16341000   
   784       C        -16.23247000     33.18736000     31.57235000   
   785       C          9.78744000     44.35058000     31.57235000   
   786       C          6.44511000     16.23507000     31.57235000   
   787       C         36.85733000      2.53595000     17.53135000   
   788       C         33.51501000     30.65146000     17.53135000   
   789       C         10.83743000     13.69917000     17.53135000   
   790       C         37.90738000      1.92971000     47.94029000   
   791       C          9.78738000     13.09292000     47.94029000   
   792       C         33.51501000     31.86394000     47.94029000   
   793       C          7.47797000     18.30544000     32.73582000   
   794       C          7.47799000     44.20992000     32.73582000   
   795       C        -14.95596000     31.25770000     32.73582000   
   796       C         12.11399000     15.62883000     16.36788000   
   797       C         34.54792000     28.58109000     16.36788000   
   798       C         34.54794000      2.67661000     16.36788000   
   799       C        -19.59196000     33.93427000      0.00000000   
   800       C          7.47799000     12.95226000      0.00000000   
   801       C         39.18392000      0.00000000      0.00000000   
   802       C         -0.00003000     31.25770000     47.09536000   
   803       C         27.06998000     15.62883000      2.00834000   
   804       C          0.00000000      0.00000000     14.35954000   
   805       C         -0.00003000     31.25770000     18.37622000   
   806       C         27.06998000     15.62883000     30.72748000   
   807       C          0.00000000      0.00000000     34.74416000   
   808       C         -0.00003000     31.25770000     44.42363000   
   809       C         27.06998000     15.62883000      4.68007000   
   810       C          0.00000000      0.00000000     11.68781000   
   811       C         -0.00003000     31.25770000     21.04796000   
   812       C         27.06998000     15.62883000     28.05574000   
   813       C          0.00000000      0.00000000     37.41589000   
   814       N          5.36364000     23.14132000     16.66727000   
   815       N          4.34716000     39.96092000     16.66727000   
   816       N         -9.71080000     30.67082000     16.66727000   
   817       N         17.35915000     16.21571000     32.43643000   
   818       N         32.43359000     23.74521000     32.43643000   
   819       N         31.41711000      6.92561000     32.43643000   
   820       N        -21.70628000     38.77014000     33.03515000   
   821       N          4.34719000      8.70322000     33.03515000   
   822       N         17.35917000     46.29965000     33.03515000   
   823       N         -9.71078000     31.84453000     48.80431000   
   824       N          5.36367000     39.37404000     48.80431000   
   825       N          4.34719000     22.55444000     48.80431000   
   826       N         32.43356000      7.51249000      0.29939000   
   827       N         31.41709000     24.33209000      0.29939000   
   828       N         17.35912000     15.04200000      0.29939000   
   829       N         44.42907000      0.58688000     16.06855000   
   830       N          5.36361000      8.11639000     16.06855000   
   831       N         31.41709000     38.18331000     16.06855000   
   832       N          3.74946000     23.76350000     25.07333000   
   833       N          4.61543000     38.25191000     25.07333000   
   834       N         -8.36489000     31.75765000     25.07333000   
   835       N         18.70506000     15.12888000     24.03037000   
   836       N         30.81941000     23.12303000     24.03037000   
   837       N         31.68538000      8.63462000     24.03037000   
   838       N         30.81944000     39.39233000     41.44121000   
   839       N          4.61545000      6.99420000     41.44121000   
   840       N         45.77504000      0.49995000     41.44121000   
   841       N         -8.36486000     30.75770000     40.39825000   
   842       N          3.74949000     38.75186000     40.39825000   
   843       N          4.61545000     24.26345000     40.39825000   
   844       N         30.81938000      8.13467000      8.70545000   
   845       N         31.68535000     22.62308000      8.70545000   
   846       N         18.70504000     16.12883000      8.70545000   
   847       N         18.70504000     46.38658000      7.66249000   
   848       N          3.74943000      7.49420000      7.66249000   
   849       N        -22.45455000     39.89232000      7.66249000   
   850       F          9.67697000     21.50779000     15.33116000   
   851       F          3.60518000     44.51313000     15.33116000   
   852       F        -13.28214000     27.75214000     15.33116000   
   853       F         13.78781000     19.13439000     33.77254000   
   854       F         36.74692000     25.37874000     33.77254000   
   855       F         30.67513000      2.37340000     33.77254000   
   856       F        -17.39296000     37.13662000     31.69904000   
   857       F          3.60520000     13.25543000     31.69904000   
   858       F         13.78784000     43.38096000     31.69904000   
   859       F        -13.28211000     34.76322000      1.03673000   
   860       F          9.67699000     41.00757000      1.03673000   
   861       F          3.60520000     18.00222000      1.03673000   
   862       F         36.74689000      5.87896000     48.06697000   
   863       F         30.67510000     28.88431000     48.06697000   
   864       F         13.78778000     12.12331000     48.06697000   
   865       F         40.85773000      3.50557000     17.40466000   
   866       F          9.67694000      9.74991000     17.40466000   
   867       F         30.67510000     33.63110000     17.40466000   
   868       F         17.59466000     16.88431000     13.31300000   
   869       F         30.72033000      6.79526000     13.31300000   
   870       F         32.89486000     23.20696000     13.31300000   
   871       F          5.82491000     23.67957000     35.79070000   
   872       F         -9.47529000     30.00222000     35.79070000   
   873       F          3.65038000     40.09126000     35.79070000   
   874       F         -9.47527000     32.51314000     29.68088000   
   875       F          3.65041000     22.42409000     29.68088000   
   876       F          5.82494000     38.83578000     29.68088000   
   877       F        -21.24501000     39.30840000      3.05489000   
   878       F         17.59468000     45.63105000      3.05489000   
   879       F          3.65041000      8.83356000      3.05489000   
   880       F         44.66458000      1.25548000     46.04881000   
   881       F         30.72031000     38.05297000     46.04881000   
   882       F          5.82488000      7.57813000     46.04881000   
   883       F         32.89483000      8.05075000     19.42282000   
   884       F         17.59463000     14.37339000     19.42282000   
   885       F         30.72031000     24.46244000     19.42282000   
   886       F          1.60417000     39.50565000     47.16607000   
   887       F         -7.94503000     28.52295000     47.16607000   
   888       F          6.34087000     25.74446000     47.16607000   
   889       F         33.41082000     21.14207000      1.93763000   
   890       F         28.67412000      7.38088000      1.93763000   
   891       F         19.12492000     18.36358000      1.93763000   
   892       F          1.60419000      8.24795000     14.43025000   
   893       F         19.12495000     44.15178000     14.43025000   
   894       F        -20.72906000     41.37328000     14.43025000   
   895       F          6.34089000     36.77090000     18.30552000   
   896       F          1.60419000     23.00970000     18.30552000   
   897       F         -7.94500000     33.99241000     18.30552000   
   898       F         28.67409000     23.87682000     30.79818000   
   899       F         19.12489000     12.89412000     30.79818000   
   900       F         33.41079000     10.11563000     30.79818000   
   901       F          6.34084000      5.51325000     34.67345000   
   902       F         28.67409000     38.63858000     34.67345000   
   903       F         46.19484000      2.73475000     34.67345000   
   904       F          5.58751000     37.29870000     43.79608000   
   905       F         -8.02543000     33.07610000     43.79608000   
   906       F          2.43792000     23.39825000     43.79608000   
   907       F         29.50787000     23.48828000      5.30762000   
   908       F         32.65746000      9.58783000      5.30762000   
   909       F         19.04452000     13.81043000      5.30762000   
   910       F          5.58754000      6.04100000     11.06026000   
   911       F         46.11450000      1.81840000     11.06026000   
   912       F         29.50790000     39.02708000     11.06026000   
   913       F          2.43795000     39.11710000     21.67550000   
   914       F          5.58754000     25.21665000     21.67550000   
   915       F         -8.02540000     29.43925000     21.67550000   
   916       F         32.65743000     21.66988000     27.42820000   
   917       F         19.04449000     17.44727000     27.42820000   
   918       F         29.50784000      7.76943000     27.42820000   
   919       F          2.43789000      7.85945000     38.04344000   
   920       F        -21.48247000     40.84553000     38.04344000   
   921       F         19.04449000     45.06813000     38.04344000   
   922       H          1.09579000     28.88773000     17.23294000   
   923       H          1.50455000     33.39165000     17.23294000   
   924       H         -2.60034000     31.49368000     17.23294000   
   925       H         24.46961000     15.39285000     31.87076000   
   926       H         28.16574000     17.99880000     31.87076000   
   927       H         28.57450000     13.49488000     31.87076000   
   928       H         28.16577000     44.51656000     33.60083000   
   929       H          1.50457000      2.13395000     33.60083000   
   930       H         51.53959000      0.23598000     33.60083000   
   931       H         -2.60031000     31.02167000     48.23864000   
   932       H          1.09582000     33.62763000     48.23864000   
   933       H          1.50457000     29.12371000     48.23864000   
   934       H         28.16571000     13.25890000      0.86506000   
   935       H         28.57447000     17.76282000      0.86506000   
   936       H         24.46958000     15.86485000      0.86506000   
   937       H         24.46958000     46.65055000     15.50287000   
   938       H          1.09576000      2.36997000     15.50287000   
   939       H        -25.56543000     44.75258000     15.50287000   
   940       H          3.73538000     27.69728000     17.33017000   
   941       H          1.21571000     36.27283000     17.33017000   
   942       H         -4.95109000     29.80295000     17.33017000   
   943       H         22.11886000     17.08358000     31.77353000   
   944       H         30.80533000     19.18925000     31.77353000   
   945       H         28.28566000     10.61370000     31.77353000   
   946       H        -23.33454000     43.32611000     33.69805000   
   947       H          1.21574000      5.01512000     33.69805000   
   948       H         22.11888000     45.43178000     33.69805000   
   949       H         -4.95107000     32.71240000     48.14141000   
   950       H          3.73541000     34.81808000     48.14141000   
   951       H          1.21574000     26.24253000     48.14141000   
   952       H         30.80531000     12.06845000      0.96229000   
   953       H         28.28563000     20.64400000      0.96229000   
   954       H         22.11883000     14.17413000      0.96229000   
   955       H         49.18878000      1.45475000     15.40565000   
   956       H          3.73536000      3.56042000     15.40565000   
   957       H         28.28563000     41.87140000     15.40565000   
   958       H          0.65942000     25.28122000     19.13522000   
   959       H          4.84606000     34.81700000     19.13522000   
   960       H         -5.50549000     33.67484000     19.13522000   
   961       H         21.56446000     13.21169000     29.96848000   
   962       H         27.72937000     21.60531000     29.96848000   
   963       H         31.91601000     12.06953000     29.96848000   
   964       H         27.72940000     40.91004000     35.50310000   
   965       H          4.84609000      3.55930000     35.50310000   
   966       H         48.63444000      2.41714000     35.50310000   
   967       H         -5.50546000     28.84051000     46.33636000   
   968       H          0.65945000     37.23414000     46.33636000   
   969       H          4.84609000     27.69836000     46.33636000   
   970       H         27.72935000      9.65239000      2.76734000   
   971       H         31.91599000     19.18817000      2.76734000   
   972       H         21.56444000     18.04602000      2.76734000   
   973       H         21.56444000     44.46939000     13.60060000   
   974       H          0.65940000      5.97649000     13.60060000   
   975       H        -22.22391000     43.32723000     13.60060000   
   976       H          4.81250000     25.67881000     16.45219000   
   977       H          2.42520000     38.21487000     16.45219000   
   978       H         -7.23769000     29.87938000     16.45219000   
   979       H         19.83226000     17.00715000     32.65151000   
   980       H         31.88245000     21.20771000     32.65151000   
   981       H         29.49515000      8.67166000     32.65151000   
   982       H        -22.25743000     41.30764000     32.82008000   
   983       H          2.42522000      6.95716000     32.82008000   
   984       H         19.83228000     45.50821000     32.82008000   
   985       H         -7.23767000     32.63598000     49.01939000   
   986       H          4.81252000     36.83654000     49.01939000   
   987       H          2.42522000     24.30049000     49.01939000   
   988       H         31.88242000     10.04999000      0.08431000   
   989       H         29.49512000     22.58604000      0.08431000   
   990       H         19.83223000     14.25055000      0.08431000   
   991       H         46.90218000      1.37832000     16.28362000   
   992       H          4.81247000      5.57889000     16.28362000   
   993       H         29.49512000     39.92936000     16.28362000   
   994       H          3.60328000     22.12716000     17.07827000   
   995       H          6.10563000     38.94348000     17.07827000   
   996       H         -9.70891000     32.70242000     17.07827000   
   997       H         17.36104000     14.18411000     32.02543000   
   998       H         30.67323000     24.75937000     32.02543000   
   999       H         33.17558000      7.94305000     32.02543000   
  1000       H         30.67326000     37.75599000     33.44615000   
  1001       H          6.10565000      7.68578000     33.44615000   
  1002       H         44.43102000      1.44471000     33.44615000   
  1003       H         -9.70888000     29.81294000     48.39332000   
  1004       H          3.60331000     40.38820000     48.39332000   
  1005       H          6.10565000     23.57187000     48.39332000   
  1006       H         30.67320000      6.49833000      0.71038000   
  1007       H         33.17555000     23.31465000      0.71038000   
  1008       H         17.36101000     17.07359000      0.71038000   
  1009       H         17.36101000     45.44181000     15.65755000   
  1010       H          3.60325000      9.13054000     15.65755000   
  1011       H        -20.96435000     39.20075000     15.65755000   
  1012       H          7.74688000     23.23415000     15.53936000   
  1013       H          3.07515000     41.97845000     15.53936000   
  1014       H        -10.82202000     28.56046000     15.53936000   
  1015       H         16.24793000     18.32607000     33.56434000   
  1016       H         34.81683000     23.65238000     33.56434000   
  1017       H         30.14510000      4.90808000     33.56434000   
  1018       H        -19.32304000     38.86298000     31.90724000   
  1019       H          3.07517000     10.72075000     31.90724000   
  1020       H         16.24795000     44.18929000     31.90724000   
  1021       H        -10.82200000     33.95490000      0.82853000   
  1022       H          7.74691000     39.28121000      0.82853000   
  1023       H          3.07517000     20.53691000      0.82853000   
  1024       H         34.81680000      7.60532000     48.27517000   
  1025       H         30.14507000     26.34962000     48.27517000   
  1026       H         16.24790000     12.93163000     48.27517000   
  1027       H         43.31785000      2.69724000     17.19646000   
  1028       H          7.74685000      8.02355000     17.19646000   
  1029       H         30.14507000     36.16578000     17.19646000   
  1030       H          5.03636000     20.54615000     17.55212000   
  1031       H          6.75828000     40.97508000     17.55212000   
  1032       H        -11.79465000     32.25184000     17.55212000   
  1033       H         15.27530000     14.63469000     31.55158000   
  1034       H         32.10631000     26.34038000     31.55158000   
  1035       H         33.82823000      5.91145000     31.55158000   
  1036       H         32.10634000     36.17497000     33.92000000   
  1037       H          6.75831000      9.71737000     33.92000000   
  1038       H         42.34528000      0.99414000     33.92000000   
  1039       H        -11.79462000     30.26352000     47.91947000   
  1040       H          5.03639000     41.96921000     47.91947000   
  1041       H          6.75831000     21.54028000     47.91947000   
  1042       H         32.10629000      4.91732000      1.18423000   
  1043       H         33.82821000     25.34625000      1.18423000   
  1044       H         15.27528000     16.62301000      1.18423000   
  1045       H         15.27528000     45.89239000     15.18370000   
  1046       H          5.03634000     10.71156000     15.18370000   
  1047       H        -20.31169000     37.16916000     15.18370000   
  1048       H          6.68113000     18.76727000     17.41119000   
  1049       H          7.47645000     43.28893000     17.41119000   
  1050       H        -14.15758000     31.71686000     17.41119000   
  1051       H         12.91237000     15.16967000     31.69251000   
  1052       H         33.75108000     28.11926000     31.69251000   
  1053       H         34.54640000      3.59760000     31.69251000   
  1054       H         33.75111000     34.39610000     33.77907000   
  1055       H          7.47648000     12.03122000     33.77907000   
  1056       H         39.98234000      0.45916000     33.77907000   
  1057       H        -14.15756000     30.79849000     48.06039000   
  1058       H          6.68116000     43.74809000     48.06039000   
  1059       H          7.47648000     19.22643000     48.06039000   
  1060       H         33.75106000      3.13844000      1.04331000   
  1061       H         34.54637000     27.66010000      1.04331000   
  1062       H         12.91234000     16.08803000      1.04331000   
  1063       H         12.91234000     46.42737000     15.32463000   
  1064       H          6.68111000     12.49043000     15.32463000   
  1065       H        -19.59353000     34.85530000     15.32463000   
  1066       H          8.87001000     20.02008000     30.95006000   
  1067       H          5.29705000     44.55814000     30.95006000   
  1068       H        -14.16706000     29.19483000     30.95006000   
  1069       H         12.90289000     17.69169000     18.15364000   
  1070       H         35.93996000     26.86645000     18.15364000   
  1071       H         32.36700000      2.32839000     18.15364000   
  1072       H        -18.19991000     35.64891000     47.31795000   
  1073       H          5.29707000     13.30044000     47.31795000   
  1074       H         12.90292000     44.82366000     47.31795000   
  1075       H        -14.16703000     33.32052000     34.52152000   
  1076       H          8.87004000     42.49528000     34.52152000   
  1077       H          5.29707000     17.95721000     34.52152000   
  1078       H         35.93993000      4.39125000     14.58218000   
  1079       H         32.36697000     28.92932000     14.58218000   
  1080       H         12.90286000     13.56601000     14.58218000   
  1081       H         39.97281000      2.06287000      1.78575000   
  1082       H          8.86998000     11.23762000      1.78575000   
  1083       H         32.36697000     33.58609000      1.78575000   
  1084       H          4.88856000     18.61911000     31.89089000   
  1085       H          8.50105000     41.81059000     31.89089000   
  1086       H        -13.38961000     33.34335000     31.89089000   
  1087       H         13.68034000     13.54317000     17.21281000   
  1088       H         31.95851000     28.26742000     17.21281000   
  1089       H         35.57100000      5.07594000     17.21281000   
  1090       H         31.95854000     34.24794000     48.25877000   
  1091       H          8.50107000     10.55289000     48.25877000   
  1092       H         40.75032000      2.08565000     48.25877000   
  1093       H        -13.38958000     29.17200000     33.58069000   
  1094       H          4.88859000     43.89625000     33.58069000   
  1095       H          8.50107000     20.70476000     33.58069000   
  1096       H         31.95849000      2.99028000     15.52301000   
  1097       H         35.57097000     26.18177000     15.52301000   
  1098       H         13.68031000     17.71453000     15.52301000   
  1099       H         13.68031000     44.80088000      0.84493000   
  1100       H          4.88854000     12.63859000      0.84493000   
  1101       H        -18.56893000     36.33364000      0.84493000   
  1102       H          4.00229000     19.91130000     30.02986000   
  1103       H          7.82511000     40.39696000     30.02986000   
  1104       H        -11.82740000     33.46479000     30.02986000   
  1105       H         15.24255000     13.42174000     19.07384000   
  1106       H         31.07224000     26.97523000     19.07384000   
[...]
  704  C   1.22158   0.99345   0.92935   0.97653
  705  C   1.22157   0.94936   0.97344   0.97653
  706  C   1.22157   0.94936   0.97344   0.97653
  707  C   1.22158   0.94139   0.98141   0.97653
  708  C   1.22158   0.99345   0.92935   0.97653
  709  C   1.22158   0.94139   0.98141   0.97653
  710  C   1.22158   0.99345   0.92935   0.97653
  711  C   1.22158   0.94936   0.97344   0.97653
  712  C   1.22157   0.94936   0.97344   0.97653
  713  C   1.22156   0.94139   0.98141   0.97653
  714  C   1.22156   0.99346   0.92935   0.97653
  715  C   1.22156   0.94139   0.98141   0.97653
  716  C   1.22156   0.99346   0.92935   0.97653
  717  C   1.22156   0.94936   0.97344   0.97653
  718  C   1.22158   0.94936   0.97344   0.97653
  719  C   1.22158   0.94139   0.98141   0.97653
  720  C   1.22158   0.99345   0.92935   0.97653
  721  C   1.21578   0.93202   0.99917   0.96871
  722  C   1.21578   0.98572   0.94548   0.96871
  723  C   1.21578   0.97906   0.95214   0.96871
  724  C   1.21578   0.97906   0.95214   0.96871
  725  C   1.21578   0.93202   0.99917   0.96871
  726  C   1.21578   0.98572   0.94548   0.96871
  727  C   1.21578   0.93202   0.99917   0.96871
  728  C   1.21577   0.98572   0.94548   0.96871
  729  C   1.21578   0.97905   0.95214   0.96871
  730  C   1.21577   0.97905   0.95214   0.96871
  731  C   1.21577   0.93202   0.99917   0.96871
  732  C   1.21577   0.98571   0.94548   0.96871
  733  C   1.21577   0.93202   0.99917   0.96871
  734  C   1.21577   0.98571   0.94548   0.96871
  735  C   1.21577   0.97905   0.95214   0.96871
  736  C   1.21578   0.97906   0.95214   0.96871
  737  C   1.21578   0.93202   0.99917   0.96871
  738  C   1.21577   0.98572   0.94548   0.96871
  739  C   1.18641   0.90639   1.00799   0.94111
  740  C   1.18641   1.00421   0.91017   0.94111
  741  C   1.18641   0.96097   0.95341   0.94111
  742  C   1.18641   0.96097   0.95341   0.94111
  743  C   1.18641   0.90639   1.00799   0.94111
  744  C   1.18641   1.00421   0.91017   0.94111
  745  C   1.18641   0.90639   1.00799   0.94111
  746  C   1.18641   1.00421   0.91017   0.94111
  747  C   1.18641   0.96097   0.95341   0.94111
  748  C   1.18641   0.96097   0.95340   0.94111
  749  C   1.18641   0.90639   1.00799   0.94111
  750  C   1.18641   1.00421   0.91017   0.94111
  751  C   1.18641   0.90639   1.00799   0.94111
  752  C   1.18641   1.00421   0.91017   0.94111
  753  C   1.18641   0.96097   0.95341   0.94111
  754  C   1.18641   0.96097   0.95341   0.94111
  755  C   1.18641   0.90639   1.00799   0.94111
  756  C   1.18641   1.00421   0.91017   0.94111
  757  C   1.21630   0.94209   0.97943   0.96918
  758  C   1.21629   0.98849   0.93304   0.96918
  759  C   1.21629   0.95171   0.96981   0.96918
  760  C   1.21629   0.95171   0.96981   0.96918
  761  C   1.21630   0.94209   0.97943   0.96918
  762  C   1.21630   0.98848   0.93304   0.96918
  763  C   1.21630   0.94209   0.97943   0.96918
  764  C   1.21630   0.98848   0.93304   0.96918
  765  C   1.21630   0.95171   0.96981   0.96918
  766  C   1.21630   0.95171   0.96981   0.96918
  767  C   1.21630   0.94209   0.97944   0.96918
  768  C   1.21630   0.98848   0.93304   0.96918
  769  C   1.21630   0.94209   0.97943   0.96918
  770  C   1.21630   0.98848   0.93304   0.96918
  771  C   1.21630   0.95171   0.96981   0.96918
  772  C   1.21630   0.95171   0.96981   0.96918
  773  C   1.21630   0.94209   0.97943   0.96918
  774  C   1.21630   0.98848   0.93304   0.96918
  775  C   1.21575   0.93190   0.99970   0.97131
  776  C   1.21575   0.99055   0.94105   0.97131
  777  C   1.21575   0.97495   0.95665   0.97131
  778  C   1.21575   0.97495   0.95665   0.97131
  779  C   1.21575   0.93190   0.99969   0.97131
  780  C   1.21575   0.99055   0.94105   0.97131
  781  C   1.21575   0.93190   0.99969   0.97131
  782  C   1.21575   0.99055   0.94105   0.97131
  783  C   1.21575   0.97494   0.95665   0.97131
  784  C   1.21576   0.97494   0.95665   0.97130
  785  C   1.21576   0.93190   0.99969   0.97130
  786  C   1.21576   0.99055   0.94105   0.97131
  787  C   1.21576   0.93190   0.99969   0.97130
  788  C   1.21576   0.99055   0.94105   0.97130
  789  C   1.21576   0.97494   0.95665   0.97130
  790  C   1.21575   0.97495   0.95665   0.97131
  791  C   1.21575   0.93190   0.99969   0.97131
  792  C   1.21575   0.99055   0.94105   0.97131
  793  C   1.18720   0.89676   0.88827   0.90646
  794  C   1.18721   0.89676   0.88827   0.90646
  795  C   1.18720   0.88403   0.90101   0.90646
  796  C   1.18720   0.88403   0.90101   0.90646
  797  C   1.18721   0.89676   0.88827   0.90646
  798  C   1.18720   0.89676   0.88827   0.90646
  799  C   1.18721   0.89676   0.88827   0.90645
  800  C   1.18720   0.89677   0.88827   0.90646
  801  C   1.18721   0.88402   0.90100   0.90645
  802  C   1.19839   0.89722   0.89722   0.98805
  803  C   1.19839   0.89722   0.89722   0.98805
  804  C   1.19837   0.89722   0.89722   0.98806
  805  C   1.19839   0.89722   0.89722   0.98805
  806  C   1.19839   0.89722   0.89722   0.98805
  807  C   1.19837   0.89722   0.89722   0.98806
  808  C   1.19326   0.90078   0.90078   0.99130
  809  C   1.19326   0.90078   0.90078   0.99130
  810  C   1.19327   0.90077   0.90077   0.99129
  811  C   1.19326   0.90078   0.90078   0.99130
  812  C   1.19326   0.90078   0.90078   0.99130
  813  C   1.19327   0.90077   0.90077   0.99129
  814  N   1.69192   1.05850   1.31354   1.11610
  815  N   1.69192   1.39978   0.97226   1.11610
  816  N   1.69192   1.09979   1.27225   1.11611
  817  N   1.69192   1.09979   1.27226   1.11611
  818  N   1.69192   1.05850   1.31354   1.11610
  819  N   1.69192   1.39978   0.97226   1.11610
  820  N   1.69192   1.05850   1.31355   1.11611
  821  N   1.69192   1.39978   0.97226   1.11610
  822  N   1.69192   1.09979   1.27226   1.11610
  823  N   1.69192   1.09979   1.27226   1.11610
  824  N   1.69192   1.05850   1.31355   1.11610
  825  N   1.69192   1.39978   0.97226   1.11610
  826  N   1.69192   1.05850   1.31355   1.11610
  827  N   1.69191   1.39979   0.97226   1.11610
  828  N   1.69192   1.09979   1.27226   1.11610
  829  N   1.69192   1.09979   1.27226   1.11611
  830  N   1.69192   1.05850   1.31355   1.11610
  831  N   1.69191   1.39979   0.97226   1.11610
  832  N   1.69030   1.36913   1.12126   1.00486
  833  N   1.69030   1.10929   1.38110   1.00486
  834  N   1.69029   1.25717   1.23322   1.00486
  835  N   1.69029   1.25717   1.23322   1.00486
  836  N   1.69030   1.36913   1.12126   1.00486
  837  N   1.69030   1.10929   1.38110   1.00486
  838  N   1.69030   1.36913   1.12126   1.00486
  839  N   1.69030   1.10929   1.38110   1.00486
  840  N   1.69030   1.25716   1.23322   1.00486
  841  N   1.69030   1.25716   1.23322   1.00486
  842  N   1.69030   1.36913   1.12126   1.00486
  843  N   1.69030   1.10929   1.38110   1.00486
  844  N   1.69030   1.36912   1.12126   1.00486
  845  N   1.69030   1.10929   1.38110   1.00486
  846  N   1.69030   1.25716   1.23322   1.00486
  847  N   1.69030   1.25716   1.23322   1.00486
  848  N   1.69030   1.36912   1.12126   1.00486
  849  N   1.69030   1.10929   1.38110   1.00486
  850  F   1.91754   1.40624   1.93985   1.83455
  851  F   1.91754   1.69197   1.65412   1.83455
  852  F   1.91754   1.92093   1.42517   1.83455
  853  F   1.91754   1.92093   1.42517   1.83455
  854  F   1.91754   1.40624   1.93985   1.83455
  855  F   1.91754   1.69197   1.65412   1.83455
  856  F   1.91754   1.40625   1.93985   1.83455
  857  F   1.91754   1.69197   1.65413   1.83455
  858  F   1.91754   1.92093   1.42517   1.83455
  859  F   1.91754   1.92093   1.42517   1.83455
  860  F   1.91754   1.40625   1.93985   1.83455
  861  F   1.91754   1.69197   1.65412   1.83455
  862  F   1.91754   1.40624   1.93985   1.83455
  863  F   1.91754   1.69197   1.65412   1.83455
  864  F   1.91754   1.92093   1.42517   1.83455
  865  F   1.91754   1.92093   1.42517   1.83455
  866  F   1.91754   1.40624   1.93985   1.83455
  867  F   1.91754   1.69197   1.65412   1.83455
  868  F   1.91785   1.90519   1.86512   1.40858
  869  F   1.91784   1.82608   1.94425   1.40857
  870  F   1.91785   1.92421   1.84611   1.40858
  871  F   1.91785   1.92421   1.84610   1.40858
  872  F   1.91784   1.90521   1.86512   1.40857
  873  F   1.91785   1.82606   1.94425   1.40858
  874  F   1.91785   1.90519   1.86512   1.40858
  875  F   1.91784   1.82608   1.94425   1.40857
  876  F   1.91785   1.92421   1.84610   1.40858
  877  F   1.91786   1.92421   1.84614   1.40854
  878  F   1.91787   1.90520   1.86513   1.40857
  879  F   1.91785   1.82610   1.94425   1.40854
  880  F   1.91786   1.90523   1.86512   1.40855
  881  F   1.91787   1.82606   1.94426   1.40857
  882  F   1.91785   1.92422   1.84613   1.40854
  883  F   1.91785   1.92421   1.84610   1.40858
  884  F   1.91784   1.90521   1.86512   1.40857
  885  F   1.91785   1.82606   1.94425   1.40858
  886  F   1.91760   1.84736   1.42322   1.91359
  887  F   1.91759   1.74531   1.52527   1.91359
  888  F   1.91758   1.31319   1.95740   1.91358
  889  F   1.91760   1.31317   1.95741   1.91359
  890  F   1.91759   1.84739   1.42320   1.91359
  891  F   1.91758   1.74534   1.52526   1.91358
  892  F   1.91758   1.84738   1.42323   1.91357
  893  F   1.91759   1.74537   1.52523   1.91357
  894  F   1.91761   1.31317   1.95741   1.91359
  895  F   1.91760   1.31317   1.95741   1.91359
  896  F   1.91759   1.84738   1.42320   1.91359
  897  F   1.91758   1.74534   1.52526   1.91358
  898  F   1.91760   1.84736   1.42322   1.91359
  899  F   1.91759   1.74531   1.52528   1.91359
  900  F   1.91758   1.31320   1.95740   1.91358
  901  F   1.91758   1.31322   1.95739   1.91357
  902  F   1.91759   1.84734   1.42326   1.91358
  903  F   1.91761   1.74532   1.52526   1.91359
  904  F   1.91748   1.32372   1.91854   1.94050
  905  F   1.91750   1.65284   1.58941   1.94050
  906  F   1.91749   1.88681   1.35544   1.94050
  907  F   1.91748   1.88683   1.35544   1.94050
  908  F   1.91750   1.32370   1.91855   1.94051
  909  F   1.91749   1.65287   1.58939   1.94050
  910  F   1.91750   1.32367   1.91857   1.94052
  911  F   1.91747   1.65287   1.58940   1.94050
  912  F   1.91749   1.88684   1.35540   1.94051
  913  F   1.91748   1.88683   1.35544   1.94049
  914  F   1.91750   1.32370   1.91855   1.94051
  915  F   1.91749   1.65287   1.58939   1.94050
  916  F   1.91748   1.32372   1.91854   1.94050
  917  F   1.91750   1.65284   1.58941   1.94051
  918  F   1.91748   1.88681   1.35545   1.94050
  919  F   1.91750   1.88682   1.35542   1.94052
  920  F   1.91746   1.32372   1.91854   1.94050
  921  F   1.91749   1.65281   1.58943   1.94051
  922  H   0.85634
  923  H   0.85634
  924  H   0.85634
  925  H   0.85634
  926  H   0.85634
  927  H   0.85634
  928  H   0.85634
  929  H   0.85634
  930  H   0.85634
  931  H   0.85634
  932  H   0.85634
  933  H   0.85634
  934  H   0.85634
  935  H   0.85634
  936  H   0.85634
  937  H   0.85634
  938  H   0.85634
  939  H   0.85634
  940  H   0.85557
  941  H   0.85557
  942  H   0.85557
  943  H   0.85557
  944  H   0.85557
  945  H   0.85557
  946  H   0.85557
  947  H   0.85557
  948  H   0.85557
  949  H   0.85557
  950  H   0.85557
  951  H   0.85557
  952  H   0.85557
  953  H   0.85557
  954  H   0.85557
  955  H   0.85557
  956  H   0.85557
  957  H   0.85557
  958  H   0.84366
  959  H   0.84366
  960  H   0.84366
  961  H   0.84366
  962  H   0.84366
  963  H   0.84366
  964  H   0.84366
  965  H   0.84366
  966  H   0.84366
  967  H   0.84366
  968  H   0.84366
  969  H   0.84366
  970  H   0.84366
  971  H   0.84366
  972  H   0.84366
  973  H   0.84366
  974  H   0.84366
  975  H   0.84366
  976  H   0.83705
  977  H   0.83705
  978  H   0.83705
  979  H   0.83705
  980  H   0.83705
  981  H   0.83705
  982  H   0.83705
  983  H   0.83705
  984  H   0.83705
  985  H   0.83705
  986  H   0.83705
  987  H   0.83705
  988  H   0.83705
  989  H   0.83705
  990  H   0.83705
  991  H   0.83705
  992  H   0.83705
  993  H   0.83705
  994  H   0.88305
  995  H   0.88305
  996  H   0.88305
  997  H   0.88305
  998  H   0.88305
  999  H   0.88305
 1000  H   0.88305
 1001  H   0.88305
 1002  H   0.88305
 1003  H   0.88305
 1004  H   0.88305
 1005  H   0.88306
 1006  H   0.88305
 1007  H   0.88306
 1008  H   0.88305
 1009  H   0.88305
 1010  H   0.88306
 1011  H   0.88305
 1012  H   0.84035
 1013  H   0.84036
 1014  H   0.84035
 1015  H   0.84035
 1016  H   0.84035
 1017  H   0.84036
 1018  H   0.84035
 1019  H   0.84035
 1020  H   0.84036
 1021  H   0.84035
 1022  H   0.84036
 1023  H   0.84035
 1024  H   0.84035
 1025  H   0.84036
 1026  H   0.84035
 1027  H   0.84035
 1028  H   0.84035
 1029  H   0.84036
 1030  H   0.86187
 1031  H   0.86187
 1032  H   0.86187
 1033  H   0.86187
 1034  H   0.86187
 1035  H   0.86187
 1036  H   0.86187
 1037  H   0.86187
 1038  H   0.86187
 1039  H   0.86187
 1040  H   0.86187
 1041  H   0.86187
 1042  H   0.86187
 1043  H   0.86187
 1044  H   0.86187
 1045  H   0.86187
 1046  H   0.86187
 1047  H   0.86187
 1048  H   0.85414
 1049  H   0.85414
 1050  H   0.85414
 1051  H   0.85414
 1052  H   0.85414
 1053  H   0.85414
 1054  H   0.85414
 1055  H   0.85414
 1056  H   0.85414
 1057  H   0.85414
 1058  H   0.85414
 1059  H   0.85414
 1060  H   0.85414
 1061  H   0.85414
 1062  H   0.85414
 1063  H   0.85414
 1064  H   0.85414
 1065  H   0.85414
 1066  H   0.85905
 1067  H   0.85905
 1068  H   0.85905
 1069  H   0.85905
 1070  H   0.85905
 1071  H   0.85905
 1072  H   0.85905
 1073  H   0.85905
 1074  H   0.85905
 1075  H   0.85905
 1076  H   0.85905
 1077  H   0.85905
 1078  H   0.85905
 1079  H   0.85905
 1080  H   0.85905
 1081  H   0.85905
 1082  H   0.85905
 1083  H   0.85905
 1084  H   0.85908
 1085  H   0.85908
 1086  H   0.85908
 1087  H   0.85908
 1088  H   0.85908
 1089  H   0.85908
 1090  H   0.85908
 1091  H   0.85908
 1092  H   0.85908
 1093  H   0.85908
 1094  H   0.85908
 1095  H   0.85908
 1096  H   0.85908
 1097  H   0.85908
 1098  H   0.85908
 1099  H   0.85908
 1100  H   0.85908
 1101  H   0.85908
 1102  H   0.85891
 1103  H   0.85891
 1104  H   0.85891
 1105  H   0.85891
 1106  H   0.85891
 1107  H   0.85891
 1108  H   0.85890
 1109  H   0.85890
 1110  H   0.85890
 1111  H   0.85891
 1112  H   0.85890
 1113  H   0.85891
 1114  H   0.85891
 1115  H   0.85891
 1116  H   0.85891
 1117  H   0.85890
 1118  H   0.85891
 1119  H   0.85890
 1120  H   0.86471
 1121  H   0.86471
 1122  H   0.86471
 1123  H   0.86471
 1124  H   0.86471
 1125  H   0.86471
 1126  H   0.86471
 1127  H   0.86471
 1128  H   0.86471
 1129  H   0.86471
 1130  H   0.86471
 1131  H   0.86471
 1132  H   0.86471
 1133  H   0.86471
 1134  H   0.86471
 1135  H   0.86471
 1136  H   0.86471
 1137  H   0.86471
 1138  H   0.85519
 1139  H   0.85519
 1140  H   0.85518
 1141  H   0.85519
 1142  H   0.85519
 1143  H   0.85519
 1144  H   0.85518
 1145  H   0.85519
 1146  H   0.85519
 1147  H   0.85519
 1148  H   0.85519
 1149  H   0.85519
 1150  H   0.85519
 1151  H   0.85519
 1152  H   0.85519
 1153  H   0.85518
 1154  H   0.85519
 1155  H   0.85519
 1156  H   0.86227
 1157  H   0.86228
 1158  H   0.86227
 1159  H   0.86227
 1160  H   0.86228
 1161  H   0.86228
 1162  H   0.86227
 1163  H   0.86227
 1164  H   0.86227
 1165  H   0.86227
 1166  H   0.86228
 1167  H   0.86227
 1168  H   0.86227
 1169  H   0.86227
 1170  H   0.86228
 1171  H   0.86227
 1172  H   0.86227
 1173  H   0.86227
 1174  H   0.83951
 1175  H   0.83951
 1176  H   0.83951
 1177  H   0.83951
 1178  H   0.83951
 1179  H   0.83951
 1180  H   0.83951
 1181  H   0.83951
 1182  H   0.83951
 1183  H   0.83951
 1184  H   0.83951
 1185  H   0.83951
 1186  H   0.83951
 1187  H   0.83951
 1188  H   0.83951
 1189  H   0.83951
 1190  H   0.83951
 1191  H   0.83951
 1192  H   0.88327
 1193  H   0.88327
 1194  H   0.88327
 1195  H   0.88327
 1196  H   0.88327
 1197  H   0.88327
 1198  H   0.88328
 1199  H   0.88327
 1200  H   0.88327
 1201  H   0.88327
 1202  H   0.88327
 1203  H   0.88327
 1204  H   0.88327
 1205  H   0.88327
 1206  H   0.88327
 1207  H   0.88327
 1208  H   0.88327
 1209  H   0.88327
 1210  H   0.85386
 1211  H   0.85386
 1212  H   0.85386
 1213  H   0.85386
 1214  H   0.85386
 1215  H   0.85386
 1216  H   0.85386
 1217  H   0.85386
 1218  H   0.85386
 1219  H   0.85385
 1220  H   0.85385
 1221  H   0.85385
 1222  H   0.85385
 1223  H   0.85385
 1224  H   0.85385
 1225  H   0.85386
 1226  H   0.85386
 1227  H   0.85386
 1228  H   0.85631
 1229  H   0.85632
 1230  H   0.85631
 1231  H   0.85631
 1232  H   0.85631
 1233  H   0.85632
 1234  H   0.85632
 1235  H   0.85631
 1236  H   0.85631
 1237  H   0.85632
 1238  H   0.85632
 1239  H   0.85631
 1240  H   0.85631
 1241  H   0.85631
 1242  H   0.85631
 1243  H   0.85632
 1244  H   0.85631
 1245  H   0.85631
 1246  H   0.83578
 1247  H   0.83578
 1248  H   0.83578
 1249  H   0.83578
 1250  H   0.83578
 1251  H   0.83578
 1252  H   0.83578
 1253  H   0.83578
 1254  H   0.83578
 1255  H   0.83578
 1256  H   0.83578
 1257  H   0.83578
 1258  H   0.83578
 1259  H   0.83578
 1260  H   0.83578
 1261  H   0.83578
 1262  H   0.83578
 1263  H   0.83578
 1264  H   0.84473
 1265  H   0.84473
 1266  H   0.84473
 1267  H   0.84473
 1268  H   0.84473
 1269  H   0.84473
 1270  H   0.84473
 1271  H   0.84473
 1272  H   0.84473
 1273  H   0.84473
 1274  H   0.84473
 1275  H   0.84473
 1276  H   0.84473
 1277  H   0.84473
 1278  H   0.84473
 1279  H   0.84473
 1280  H   0.84473
 1281  H   0.84473
 1282  H   0.86025
 1283  H   0.86024
 1284  H   0.86025
 1285  H   0.86025
 1286  H   0.86024
 1287  H   0.86024
 1288  H   0.86025
 1289  H   0.86025
 1290  H   0.86024
 1291  H   0.86025
 1292  H   0.86025
 1293  H   0.86025
 1294  H   0.86025
 1295  H   0.86025
 1296  H   0.86025
 1297  H   0.86024
 1298  H   0.86024
 1299  H   0.86024
 1300  H   0.86525
 1301  H   0.86525
 1302  H   0.86525
 1303  H   0.86525
 1304  H   0.86525
 1305  H   0.86525
 1306  H   0.86525
 1307  H   0.86525
 1308  H   0.86525
 1309  H   0.86525
 1310  H   0.86525
 1311  H   0.86525
 1312  H   0.86525
 1313  H   0.86525
 1314  H   0.86525
 1315  H   0.86525
 1316  H   0.86525
 1317  H   0.86525
 1318  H   0.85995
 1319  H   0.85995
 1320  H   0.85995
 1321  H   0.85995
 1322  H   0.85995
 1323  H   0.85995
 1324  H   0.85995
 1325  H   0.85995
 1326  H   0.85995
 1327  H   0.85995
 1328  H   0.85995
 1329  H   0.85995
 1330  H   0.85995
 1331  H   0.85995
 1332  H   0.85995
 1333  H   0.85995
 1334  H   0.85995
 1335  H   0.85995
 1336  H   0.85931
 1337  H   0.85931
 1338  H   0.85931
 1339  H   0.85931
 1340  H   0.85931
 1341  H   0.85931
 1342  H   0.85931
 1343  H   0.85931
 1344  H   0.85931
 1345  H   0.85930
 1346  H   0.85930
 1347  H   0.85930
 1348  H   0.85930
 1349  H   0.85930
 1350  H   0.85930
 1351  H   0.85931
 1352  H   0.85931
 1353  H   0.85931
 1354  H   0.87289
 1355  H   0.87289
 1356  H   0.87290
 1357  H   0.87289
 1358  H   0.87289
 1359  H   0.87290
 1360  H   0.87002
 1361  H   0.87002
 1362  H   0.87001
 1363  H   0.87002
 1364  H   0.87002
 1365  H   0.87001

 **********************
 *                    *
 * JOB ENDED NORMALLY *
 *                    *
 **********************



 TOTAL JOB TIME:           262.40 SECONDS

 == MOPAC DONE ==
