 *******************************************************************************
 ** Cite this program as: MOPAC2016, Version: 22.066W, James J. P. Stewart,   **
 **                           web-site: HTTP://OpenMOPAC.net.                 **
 *******************************************************************************
 **                                                                           **
 **                                MOPAC2016                                  **
 **                                                                           **
 *******************************************************************************

                              PM7 CALCULATION RESULTS

 *******************************************************************************
 *  CALCULATION DONE:                                Mon May  9 22:11:23 2022  *
 *  PM7        - The PM7 Hamiltonian to be used
 *  GEO_DAT    - DATA SET GEOMETRY IS IN FILE "E2_TS.ARC"
 *
 *
 *
 *                 CHARGE ON SYSTEM = 0
 *
 *
 *
 *  LET        - OVERRIDE SOME SAFETY CHECKS
 *  FORCE      - FORCE CALCULATION SPECIFIED
 *  T=         - A TIME OF 172800.0 SECONDS REQUESTED
 *  DUMP=N     - RESTART FILE WRITTEN EVERY 7200.0 SECONDS REQUESTED
 *******************************************************************************
PM7 CHARGE=0 FORCE LET GEO_DAT="E2_TS.arc"


   ATOM   CHEMICAL          X               Y               Z
  NUMBER   SYMBOL      (ANGSTROMS)     (ANGSTROMS)     (ANGSTROMS)
 
     1       O         -0.16761190  *  -0.37368381  *   0.42577632  *
     2       C          1.09016965  *  -0.27692611  *   0.29445984  *
     3       C          1.67162778  *   1.03785715  *   0.41436491  *
     4       C          3.02031682  *   1.17030885  *   0.52935319  *
     5       C          3.88127012  *   0.02988046  *   0.49044997  *
     6       C          3.36658351  *  -1.20440415  *   0.23671102  *
     7       C          1.94400253  *  -1.43155895  *   0.10903690  *
     8       H          0.99056819  *   1.88409466  *   0.43402703  *
     9       H          3.47810662  *   2.15438845  *   0.65112868  *
    10       H          4.94660676  *   0.18024786  *   0.63464908  *
    11       C          1.59057824  *  -2.44037245  *  -0.97495032  *
    12       H          1.67205365  *  -2.19214042  *   1.27587038  *
    13       C          0.13004551  *  -2.70026039  *  -1.16932808  *
    14       H          2.13267113  *  -3.39360707  *  -0.77596491  *
    15       H          1.99936725  *  -2.06369235  *  -1.94515790  *
    16       C         -0.37192720  *  -3.93317138  *  -1.24212940  *
    17       H         -0.49514565  *  -1.81445935  *  -1.29961093  *
    18       H          0.21700841  *  -4.83072347  *  -1.12568687  *
    19       H         -1.41648112  *  -4.14049935  *  -1.41609266  *
    20       O          1.24138578  *  -3.25013691  *   1.88304227  *
    21       C         -0.01756872  *  -3.34057668  *   2.00352346  *
    22       C         -0.60957918  *  -4.64876862  *   1.85955340  *
    23       C         -1.95894774  *  -4.77077019  *   1.73710354  *
    24       C         -2.81049287  *  -3.62527121  *   1.78845830  *
    25       C         -2.28560390  *  -2.39852475  *   2.06283467  *
    26       C         -0.86467150  *  -2.18457218  *   2.19578044  *
    27       H          0.06519270  *  -5.49928045  *   1.83163793  *
    28       H         -2.42292684  *  -5.74978385  *   1.60065448  *
    29       H         -3.87640732  *  -3.76389800  *   1.63834625  *
    30       H         -2.93356575  *  -1.52755020  *   2.18776706  *
    31       C         -0.50028038  *  -1.15498433  *   3.25313799  *
    32       H         -0.59093948  *  -1.42935237  *   1.00075483  *
    33       C          0.96277007  *  -0.91808608  *   3.45729785  *
    34       H         -0.92460855  *  -1.49611902  *   4.23051549  *
    35       H         -1.02233463  *  -0.19689136  *   3.02413157  *
    36       C          1.48275480  *   0.30672737  *   3.54132408  *
    37       H          1.57404748  *  -1.81431040  *   3.58403952  *
    38       H          0.90827364  *   1.21375863  *   3.42912029  *
    39       H          2.52867494  *   0.49688119  *   3.72352205  *
    40       H          4.01903715  *  -2.07415558  *   0.12557311  *
 


          CARTESIAN COORDINATES 

    NO.       ATOM           X           Y           Z

     1         O         -0.1676     -0.3737      0.4258
     2         C          1.0902     -0.2769      0.2945
     3         C          1.6716      1.0379      0.4144
     4         C          3.0203      1.1703      0.5294
     5         C          3.8813      0.0299      0.4904
     6         C          3.3666     -1.2044      0.2367
     7         C          1.9440     -1.4316      0.1090
     8         H          0.9906      1.8841      0.4340
     9         H          3.4781      2.1544      0.6511
    10         H          4.9466      0.1802      0.6346
    11         C          1.5906     -2.4404     -0.9750
    12         H          1.6721     -2.1921      1.2759
    13         C          0.1300     -2.7003     -1.1693
    14         H          2.1327     -3.3936     -0.7760
    15         H          1.9994     -2.0637     -1.9452
    16         C         -0.3719     -3.9332     -1.2421
    17         H         -0.4951     -1.8145     -1.2996
    18         H          0.2170     -4.8307     -1.1257
    19         H         -1.4165     -4.1405     -1.4161
    20         O          1.2414     -3.2501      1.8830
    21         C         -0.0176     -3.3406      2.0035
    22         C         -0.6096     -4.6488      1.8596
    23         C         -1.9589     -4.7708      1.7371
    24         C         -2.8105     -3.6253      1.7885
    25         C         -2.2856     -2.3985      2.0628
    26         C         -0.8647     -2.1846      2.1958
    27         H          0.0652     -5.4993      1.8316
    28         H         -2.4229     -5.7498      1.6007
    29         H         -3.8764     -3.7639      1.6383
    30         H         -2.9336     -1.5276      2.1878
    31         C         -0.5003     -1.1550      3.2531
    32         H         -0.5909     -1.4294      1.0008
    33         C          0.9628     -0.9181      3.4573
    34         H         -0.9246     -1.4961      4.2305
    35         H         -1.0223     -0.1969      3.0241
    36         C          1.4828      0.3067      3.5413
    37         H          1.5740     -1.8143      3.5840
    38         H          0.9083      1.2138      3.4291
    39         H          2.5287      0.4969      3.7235
    40         H          4.0190     -2.0742      0.1256

 General Reference for PM7:
 "Optimization of Parameters for Semiempirical Methods VI: More Modifications to the 
 NDDO Approximations and Re-optimization of Parameters", J. J. P. Stewart, J. Mol. Mod., 1:32, 19 (2013)
 https://link.springer.com/article/10.1007/s00894-012-1667-x

           Empirical Formula: C18 H20 O2  =    40 atoms



      MOLECULAR POINT GROUP   :   Ci  


      RHF CALCULATION, NO. OF DOUBLY OCCUPIED LEVELS = 52



          HEAT OF FORMATION =      22.588465 KCALS/MOLE


          CARTESIAN COORDINATE DERIVATIVES

   NUMBER  ATOM         X            Y            Z

     1       O      0.533011     0.019899     0.257490
     2       C     -0.500523     0.077260    -0.018449
     3       C      0.063669    -0.121715     0.054382
     4       C     -0.048677    -0.069882     0.049892
     5       C      0.060753    -0.039034     0.039631
     6       C      0.285061    -0.011127    -0.041192
     7       C      0.312031     0.553513    -0.367334
     8       H      0.031324     0.026016     0.033637
     9       H      0.030451    -0.039884     0.061757
    10       H      0.012025    -0.082248     0.009854
    11       C      0.171514     0.005581     0.101390
    12       H     -0.367442    -0.302659     0.429005
    13       C     -0.226578     0.124461     0.148478
    14       H      0.417739    -0.415025    -0.112604
    15       H      0.144287     0.432073    -0.534260
    16       C      0.027021    -0.339556     0.110022
    17       H     -0.447299     0.276090    -0.047833
    18       H      0.414936    -0.404064     0.082334
    19       H     -0.333697    -0.214418     0.079034
    20       O      0.086853    -0.194803     0.174700
    21       C     -0.259452     0.051107     0.033222
    22       C     -0.016419    -0.071989    -0.072114
    23       C     -0.036537     0.030905    -0.061806
    24       C      0.003954     0.104752     0.003518
    25       C      0.203670    -0.022850    -0.116446
    26       C      0.123451     0.298656    -0.138033
    27       H     -0.127372     0.038901    -0.083310
    28       H     -0.084638     0.013142    -0.027991
    29       H     -0.064932     0.055924    -0.083679
    30       H      0.000619     0.025934     0.046337
    31       C     -0.185987    -0.415370    -0.315426
    32       H     -0.111834     0.034833     0.092797
    33       C      0.309943    -0.146734    -0.027174
    34       H     -0.193227    -0.250697     0.688790
    35       H     -0.513189     0.450545    -0.124886
    36       C      0.075869     0.337032    -0.054720
    37       H      0.366049    -0.259531    -0.094920
    38       H     -0.383171     0.407331    -0.086072
    39       H      0.200604     0.191291    -0.117648
    40       H      0.026144    -0.153660     0.029628
 


          GRADIENT NORM =   2.50288


          TIME FOR SCF CALCULATION =    0.08

          TIME FOR DERIVATIVES     =    0.03

          MOLECULAR WEIGHT =  268.35



          ROTATIONAL CONSTANTS IN CM(-1)

          A =    0.01945340   B =    0.01011176   C =    0.00833625



           PRINCIPAL MOMENTS OF INERTIA IN UNITS OF 10**(-40)*GRAM-CM**2

          A =     1438.9655   B =     2768.3388   C =     3357.9580


          ORIENTATION OF MOLECULE IN FORCE CALCULATION

    NO.       ATOM         X         Y         Z

     1          O      -0.5179    1.3503   -0.9878
     2          C       0.7504    1.3503   -0.9878
     3          C       1.4149    2.6307   -0.9878
     4          C       2.7506    2.6968   -0.7402
     5          C       3.5214    1.5130   -0.5212
     6          C       2.9431    0.2883   -0.6565
     7          C       1.5282    0.1314   -0.9118
     8          H       0.8020    3.5103   -1.1641
     9          H       3.2670    3.6585   -0.7061
    10          H       4.5744    1.6182   -0.2795
    11          C       1.2130   -1.0029   -1.8770
    12          H       1.0797   -0.4311    0.3115
    13          C      -0.2351   -1.1997   -2.1976
    14          H       1.6573   -1.9475   -1.4864
    15          H       1.7476   -0.7988   -2.8377
    16          C      -0.8194   -2.3972   -2.1537
    17          H      -0.7740   -0.3065   -2.5205
    18          H      -0.3159   -3.3018   -1.8467
    19          H      -1.8531   -2.5642   -2.4143
    20          O       0.5090   -1.3600    1.0079
    21          C      -0.7588   -1.3553    0.9962
    22          C      -1.4308   -2.6321    0.9704
    23          C      -2.7656   -2.6889    0.7140
    24          C      -3.5280   -1.4989    0.5076
    25          C      -2.9423   -0.2792    0.6655
    26          C      -1.5306   -0.1344    0.9275
    27          H      -0.8236   -3.5167    1.1385
    28          H      -3.2863   -3.6474    0.6641
    29          H      -4.5801   -1.5933    0.2584
    30          H      -3.5314    0.6383    0.5930
    31          C      -1.2002    1.0158    1.8649
    32          H      -1.0778    0.4185   -0.3225
    33          C       0.2477    1.1912    2.1986
    34          H      -1.7482    0.8488    2.8259
    35          H      -1.6211    1.9595    1.4464
    36          C       0.8481    2.3812    2.1689
    37          H       0.7724    0.2880    2.5180
    38          H       0.3592    3.2949    1.8665
    39          H       1.8809    2.5325    2.4402
    40          H       3.5353   -0.6262   -0.5702


    FIRST DERIVATIVES WILL BE USED IN THE CALCULATION OF SECOND DERIVATIVES

          ESTIMATED TIME TO COMPLETE CALCULATION =       26.25 SECONDS

    FOR POINT-GROUP Ci   THERE ARE   2 UNIQUE SYMMETRY FUNCTIONS.

 STEP:   1 TIME =     0.12 SECS, INTEGRAL =      0.12 TIME LEFT: 172799.77
 STEP:   2 TIME =     0.10 SECS, INTEGRAL =      0.22 TIME LEFT: 172799.67
 STEP:   3 TIME =     0.10 SECS, INTEGRAL =      0.32 TIME LEFT: 172799.57
 STEP:   4 TIME =     0.11 SECS, INTEGRAL =      0.43 TIME LEFT: 172799.46
 STEP:   5 TIME =     0.11 SECS, INTEGRAL =      0.54 TIME LEFT: 172799.35
 STEP:   6 TIME =     0.12 SECS, INTEGRAL =      0.66 TIME LEFT: 172799.23
 STEP:   7 TIME =     0.16 SECS, INTEGRAL =      0.81 TIME LEFT: 172799.08
 STEP:   8 TIME =     0.20 SECS, INTEGRAL =      1.02 TIME LEFT: 172798.88
 STEP:   9 TIME =     0.12 SECS, INTEGRAL =      1.13 TIME LEFT: 172798.76
 STEP:  10 TIME =     0.10 SECS, INTEGRAL =      1.23 TIME LEFT: 172798.66
 STEP:  11 TIME =     0.09 SECS, INTEGRAL =      1.33 TIME LEFT: 172798.56
 STEP:  12 TIME =     0.10 SECS, INTEGRAL =      1.43 TIME LEFT: 172798.46
 STEP:  13 TIME =     0.09 SECS, INTEGRAL =      1.52 TIME LEFT: 172798.37
 STEP:  14 TIME =     0.10 SECS, INTEGRAL =      1.62 TIME LEFT: 172798.27
 STEP:  15 TIME =     0.09 SECS, INTEGRAL =      1.72 TIME LEFT: 172798.17
 STEP:  16 TIME =     0.09 SECS, INTEGRAL =      1.81 TIME LEFT: 172798.08
 STEP:  17 TIME =     0.09 SECS, INTEGRAL =      1.91 TIME LEFT: 172797.98
 STEP:  18 TIME =     0.09 SECS, INTEGRAL =      2.00 TIME LEFT: 172797.89
 STEP:  19 TIME =     0.10 SECS, INTEGRAL =      2.10 TIME LEFT: 172797.79
 STEP:  20 TIME =     0.10 SECS, INTEGRAL =      2.20 TIME LEFT: 172797.69
 STEP:  21 TIME =     0.09 SECS, INTEGRAL =      2.30 TIME LEFT: 172797.59
 STEP:  22 TIME =     0.09 SECS, INTEGRAL =      2.39 TIME LEFT: 172797.50
 STEP:  23 TIME =     0.09 SECS, INTEGRAL =      2.48 TIME LEFT: 172797.41
 STEP:  24 TIME =     0.09 SECS, INTEGRAL =      2.56 TIME LEFT: 172797.33
 STEP:  25 TIME =     0.09 SECS, INTEGRAL =      2.65 TIME LEFT: 172797.24
 STEP:  26 TIME =     0.09 SECS, INTEGRAL =      2.73 TIME LEFT: 172797.16
 STEP:  27 TIME =     0.10 SECS, INTEGRAL =      2.84 TIME LEFT: 172797.05
 STEP:  28 TIME =     0.09 SECS, INTEGRAL =      2.92 TIME LEFT: 172796.97
 STEP:  29 TIME =     0.09 SECS, INTEGRAL =      3.01 TIME LEFT: 172796.88
 STEP:  30 TIME =     0.08 SECS, INTEGRAL =      3.09 TIME LEFT: 172796.80
 STEP:  31 TIME =     0.09 SECS, INTEGRAL =      3.18 TIME LEFT: 172796.71
 STEP:  32 TIME =     0.09 SECS, INTEGRAL =      3.27 TIME LEFT: 172796.62
 STEP:  33 TIME =     0.09 SECS, INTEGRAL =      3.36 TIME LEFT: 172796.53
 STEP:  34 TIME =     0.10 SECS, INTEGRAL =      3.46 TIME LEFT: 172796.43
 STEP:  35 TIME =     0.09 SECS, INTEGRAL =      3.55 TIME LEFT: 172796.34
 STEP:  36 TIME =     0.09 SECS, INTEGRAL =      3.64 TIME LEFT: 172796.25
 STEP:  37 TIME =     0.09 SECS, INTEGRAL =      3.73 TIME LEFT: 172796.16
 STEP:  38 TIME =     0.09 SECS, INTEGRAL =      3.83 TIME LEFT: 172796.06
 STEP:  39 TIME =     0.09 SECS, INTEGRAL =      3.92 TIME LEFT: 172795.97
 STEP:  40 TIME =     0.09 SECS, INTEGRAL =      4.01 TIME LEFT: 172795.88
 STEP:  41 TIME =     0.09 SECS, INTEGRAL =      4.09 TIME LEFT: 172795.80
 STEP:  42 TIME =     0.09 SECS, INTEGRAL =      4.18 TIME LEFT: 172795.71
 STEP:  43 TIME =     0.09 SECS, INTEGRAL =      4.27 TIME LEFT: 172795.62
 STEP:  44 TIME =     0.09 SECS, INTEGRAL =      4.36 TIME LEFT: 172795.53
 STEP:  45 TIME =     0.09 SECS, INTEGRAL =      4.45 TIME LEFT: 172795.45
 STEP:  46 TIME =     0.09 SECS, INTEGRAL =      4.54 TIME LEFT: 172795.35
 STEP:  47 TIME =     0.09 SECS, INTEGRAL =      4.63 TIME LEFT: 172795.26
 STEP:  48 TIME =     0.09 SECS, INTEGRAL =      4.72 TIME LEFT: 172795.17
 STEP:  49 TIME =     0.09 SECS, INTEGRAL =      4.80 TIME LEFT: 172795.09
 STEP:  50 TIME =     0.09 SECS, INTEGRAL =      4.89 TIME LEFT: 172795.00
 STEP:  51 TIME =     0.09 SECS, INTEGRAL =      4.98 TIME LEFT: 172794.91
 STEP:  52 TIME =     0.10 SECS, INTEGRAL =      5.08 TIME LEFT: 172794.81
 STEP:  53 TIME =     0.08 SECS, INTEGRAL =      5.16 TIME LEFT: 172794.73
 STEP:  54 TIME =     0.09 SECS, INTEGRAL =      5.25 TIME LEFT: 172794.64
 STEP:  55 TIME =     0.09 SECS, INTEGRAL =      5.34 TIME LEFT: 172794.55
 STEP:  56 TIME =     0.09 SECS, INTEGRAL =      5.42 TIME LEFT: 172794.47
 STEP:  57 TIME =     0.08 SECS, INTEGRAL =      5.50 TIME LEFT: 172794.39
 STEP:  58                       INTEGRAL =      5.50 TIME LEFT: 172794.39
 STEP:  59                       INTEGRAL =      5.50 TIME LEFT: 172794.39
 STEP:  60                       INTEGRAL =      5.50 TIME LEFT: 172794.39
 STEP:  61                       INTEGRAL =      5.50 TIME LEFT: 172794.39
 STEP:  62                       INTEGRAL =      5.50 TIME LEFT: 172794.39
 STEP:  63                       INTEGRAL =      5.50 TIME LEFT: 172794.39
 STEP:  64                       INTEGRAL =      5.50 TIME LEFT: 172794.39
 STEP:  65                       INTEGRAL =      5.50 TIME LEFT: 172794.39
 STEP:  66                       INTEGRAL =      5.50 TIME LEFT: 172794.39
 STEP:  67                       INTEGRAL =      5.50 TIME LEFT: 172794.39
 STEP:  68                       INTEGRAL =      5.50 TIME LEFT: 172794.39
 STEP:  69                       INTEGRAL =      5.50 TIME LEFT: 172794.39
 STEP:  70                       INTEGRAL =      5.50 TIME LEFT: 172794.39
 STEP:  71                       INTEGRAL =      5.50 TIME LEFT: 172794.39
 STEP:  72                       INTEGRAL =      5.50 TIME LEFT: 172794.39
 STEP:  73                       INTEGRAL =      5.50 TIME LEFT: 172794.39
 STEP:  74                       INTEGRAL =      5.50 TIME LEFT: 172794.39
 STEP:  75                       INTEGRAL =      5.50 TIME LEFT: 172794.39
 STEP:  76                       INTEGRAL =      5.50 TIME LEFT: 172794.39
 STEP:  77                       INTEGRAL =      5.50 TIME LEFT: 172794.39
 STEP:  78                       INTEGRAL =      5.50 TIME LEFT: 172794.39
 STEP:  79                       INTEGRAL =      5.50 TIME LEFT: 172794.39
 STEP:  80                       INTEGRAL =      5.50 TIME LEFT: 172794.39
 STEP:  81                       INTEGRAL =      5.50 TIME LEFT: 172794.39
 STEP:  82                       INTEGRAL =      5.50 TIME LEFT: 172794.39
 STEP:  83                       INTEGRAL =      5.50 TIME LEFT: 172794.39
 STEP:  84                       INTEGRAL =      5.50 TIME LEFT: 172794.39
 STEP:  85                       INTEGRAL =      5.50 TIME LEFT: 172794.39
 STEP:  86                       INTEGRAL =      5.50 TIME LEFT: 172794.39
 STEP:  87                       INTEGRAL =      5.50 TIME LEFT: 172794.39
 STEP:  88 TIME =     0.09 SECS, INTEGRAL =      5.59 TIME LEFT: 172794.30
 STEP:  89 TIME =     0.09 SECS, INTEGRAL =      5.67 TIME LEFT: 172794.22
 STEP:  90 TIME =     0.09 SECS, INTEGRAL =      5.76 TIME LEFT: 172794.13
 STEP:  91                       INTEGRAL =      5.76 TIME LEFT: 172794.13
 STEP:  92                       INTEGRAL =      5.76 TIME LEFT: 172794.13
 STEP:  93                       INTEGRAL =      5.76 TIME LEFT: 172794.13
 STEP:  94                       INTEGRAL =      5.76 TIME LEFT: 172794.13
 STEP:  95                       INTEGRAL =      5.76 TIME LEFT: 172794.13
 STEP:  96                       INTEGRAL =      5.76 TIME LEFT: 172794.13
 STEP:  97                       INTEGRAL =      5.76 TIME LEFT: 172794.13
 STEP:  98                       INTEGRAL =      5.76 TIME LEFT: 172794.13
 STEP:  99                       INTEGRAL =      5.76 TIME LEFT: 172794.13
 STEP: 100                       INTEGRAL =      5.76 TIME LEFT: 172794.13
 STEP: 101                       INTEGRAL =      5.76 TIME LEFT: 172794.13
 STEP: 102                       INTEGRAL =      5.76 TIME LEFT: 172794.13
 STEP: 103                       INTEGRAL =      5.76 TIME LEFT: 172794.13
 STEP: 104                       INTEGRAL =      5.76 TIME LEFT: 172794.13
 STEP: 105                       INTEGRAL =      5.76 TIME LEFT: 172794.13
 STEP: 106                       INTEGRAL =      5.76 TIME LEFT: 172794.13
 STEP: 107                       INTEGRAL =      5.76 TIME LEFT: 172794.13
 STEP: 108                       INTEGRAL =      5.76 TIME LEFT: 172794.13
 STEP: 109                       INTEGRAL =      5.76 TIME LEFT: 172794.13
 STEP: 110                       INTEGRAL =      5.76 TIME LEFT: 172794.13
 STEP: 111                       INTEGRAL =      5.76 TIME LEFT: 172794.13
 STEP: 112                       INTEGRAL =      5.76 TIME LEFT: 172794.13
 STEP: 113                       INTEGRAL =      5.76 TIME LEFT: 172794.13
 STEP: 114                       INTEGRAL =      5.76 TIME LEFT: 172794.13
 STEP: 115                       INTEGRAL =      5.76 TIME LEFT: 172794.13
 STEP: 116                       INTEGRAL =      5.76 TIME LEFT: 172794.13
 STEP: 117                       INTEGRAL =      5.76 TIME LEFT: 172794.13
 STEP: 118                       INTEGRAL =      5.76 TIME LEFT: 172794.13
 STEP: 119                       INTEGRAL =      5.76 TIME LEFT: 172794.13
 STEP: 120                       INTEGRAL =      5.76 TIME LEFT: 172794.13

(To convert to Hartree/Bohr^2, multiply by (10^(-21) x N x a0^2)/(4.184 x 627.51) =  0.0642)


           FORCE MATRIX IN MILLIDYNES/ANGSTROM


                  O  1       C  2       C  3       C  4       C  5       C  6
 ------------------------------------------------------------------------------
     O    1   9.892374
     C    2   7.811708  16.434278
     C    3   2.024645   4.310266  15.727838
     C    4   0.547514   1.700830   8.124955  15.905963
     C    5   0.415829   0.872227   1.702885   4.910599  15.710815
     C    6   0.360896   1.270446   0.940353   1.811047   7.965880  15.685005
     C    7   1.639158   4.401140   1.022553   0.735330   1.472740   4.517317
     H    8   0.059753   0.743387   3.483886   0.785996   0.121112   0.035542
     H    9   0.030569   0.151562   0.755622   3.464108   0.710703   0.065216
     H   10   0.025381   0.029560   0.057730   0.739204   3.483784   0.807826
     C   11   0.145516   0.633249   0.097623   0.092322   0.119236   0.763850
     H   12   0.998197   1.348606   0.350675   0.389210   0.478675   1.073870
     C   13   0.081541   0.058560   0.014827   0.010604   0.015487   0.048874
     H   14   0.023403   0.042479   0.017144   0.016925   0.021305   0.052297
     H   15   0.021443   0.048489   0.018571   0.014409   0.018106   0.042445
     C   16   0.044481   0.041189   0.015313   0.012853   0.016492   0.014546
     H   17   0.065200   0.089851   0.023621   0.017919   0.016143   0.013483
     H   18   0.015076   0.013735   0.005068   0.003113   0.005024   0.005745
     H   19   0.016705   0.012628   0.004437   0.002884   0.004814   0.004181
     O   20   0.932741   0.909343   0.318972   0.331467   0.390633   0.533975
     C   21   0.908032   0.765368   0.278442   0.259275   0.287686   0.362105
     C   22   0.323106   0.280907   0.098195   0.094963   0.107432   0.133206
     C   23   0.333453   0.260089   0.094803   0.077835   0.078933   0.087907
     C   24   0.392839   0.288862   0.107794   0.079312   0.074107   0.076605
     C   25   0.536358   0.362831   0.135054   0.089516   0.077677   0.074301
     C   26   1.970329   1.022699   0.382403   0.237254   0.198736   0.194774
     H   27   0.020109   0.013324   0.006932   0.003289   0.003273   0.004818
     H   28   0.015918   0.009347   0.004967   0.001343   0.003097   0.004168
     H   29   0.018154   0.010020   0.004873   0.000665   0.002561   0.003526
     H   30   0.018412   0.007154   0.003630   0.003980   0.005287   0.006110
     C   31   0.168813   0.101977   0.033447   0.017359   0.014572   0.017384
     H   32   1.543522   1.941230   0.578364   0.347470   0.287895   0.276921
     C   33   0.020650   0.020252   0.012236   0.008806   0.014330   0.015974
     H   34   0.026178   0.018402   0.008157   0.005471   0.004938   0.004327
     H   35   0.016906   0.027222   0.015023   0.010701   0.009598   0.008310
     C   36   0.048668   0.048258   0.049369   0.023460   0.033204   0.028102
     H   37   0.011656   0.014506   0.010748   0.011120   0.014833   0.014923
     H   38   0.016758   0.017728   0.016823   0.012057   0.012415   0.011316
     H   39   0.018095   0.021892   0.014129   0.006575   0.013209   0.010746
     H   40   0.027119   0.087076   0.051930   0.132650   0.750410   3.446172


                  C  7       H  8       H  9       H 10       C 11       H 12
 ------------------------------------------------------------------------------
     C    7  13.388702
     H    8   0.048746   4.393049
     H    9   0.038024   0.048102   4.343976
     H   10   0.104672   0.006923   0.022652   4.413448
     C   11   2.935974   0.009463   0.005851   0.012447  11.944302
     H   12   1.313338   0.028319   0.024364   0.028227   0.579703   1.070604
     C   13   0.594610   0.001811   0.001023   0.001814   3.737755   0.023345
     H   14   0.685283   0.001853   0.000944   0.002080   3.262395   0.047753
     H   15   0.713396   0.002227   0.001375   0.001866   3.204250   0.039968
     C   16   0.051044   0.002392   0.001998   0.002185   0.874639   0.042382
     H   17   0.027013   0.002600   0.000972   0.001079   0.669364   0.017967
     H   18   0.017612   0.000849   0.000816   0.001004   0.078269   0.019609
     H   19   0.025220   0.000986   0.000885   0.000872   0.140850   0.016333
     O   20   1.972843   0.021354   0.015470   0.018054   0.170765   1.561814
     C   21   1.030272   0.014638   0.008927   0.009861   0.102234   1.932094
     C   22   0.380598   0.008115   0.004535   0.004645   0.033149   0.573009
     C   23   0.234831   0.005149   0.001150   0.000478   0.016031   0.342146
     C   24   0.196897   0.005182   0.003189   0.002608   0.013013   0.283682
     C   25   0.191752   0.005992   0.004359   0.003600   0.015583   0.270734
     C   26   0.506862   0.020701   0.014383   0.010761   0.049834   0.735565
     H   27   0.020334   0.000760   0.000923   0.001049   0.005002   0.032446
     H   28   0.014434   0.000929   0.001107   0.001112   0.002496   0.018840
     H   29   0.011116   0.001059   0.001125   0.001116   0.001703   0.014900
     H   30   0.014836   0.002127   0.000650   0.000576   0.001259   0.018818
     C   31   0.052347   0.004738   0.002375   0.001664   0.004504   0.075732
     H   32   0.737483   0.032965   0.019137   0.014431   0.072793   0.965732
     C   33   0.041661   0.003444   0.001701   0.001640   0.002457   0.031743
     H   34   0.010248   0.001083   0.000482   0.000569   0.001219   0.015338
     H   35   0.018905   0.003655   0.001137   0.000995   0.002155   0.022080
     C   36   0.046611   0.009669   0.005488   0.005007   0.004812   0.055219
     H   37   0.027608   0.002652   0.001335   0.001379   0.003097   0.054574
     H   38   0.019333   0.006863   0.002721   0.001237   0.001602   0.021725
     H   39   0.020149   0.002907   0.003039   0.003632   0.001755   0.024384
     H   40   0.715031   0.012302   0.013175   0.045509   0.027889   0.049165


                  C 13       H 14       H 15       C 16       H 17       H 18
 ------------------------------------------------------------------------------
     C   13  16.878252
     H   14   0.729143   4.219219
     H   15   0.754534   0.444497   4.169345
     C   16  10.450118   0.035156   0.031570  15.983128
     H   17   3.425607   0.043156   0.015003   0.808251   4.318173
     H   18   0.810608   0.022716   0.012396   3.560319   0.140450   4.307637
     H   19   0.810332   0.004229   0.019455   3.563903   0.067300   0.465670
     O   20   0.017764   0.018416   0.022293   0.048057   0.010661   0.017078
     C   21   0.017775   0.025884   0.014994   0.046723   0.014356   0.017707
     C   22   0.013115   0.013466   0.006058   0.047933   0.010790   0.016376
     C   23   0.010140   0.008983   0.003266   0.021899   0.011016   0.011436
     C   24   0.015451   0.007838   0.002766   0.031229   0.014535   0.011754
     C   25   0.017019   0.006421   0.002299   0.026271   0.014652   0.010775
     C   26   0.042423   0.016319   0.007386   0.042929   0.027227   0.018953
     H   27   0.003440   0.003543   0.001090   0.009441   0.002694   0.007134
     H   28   0.001664   0.001107   0.000491   0.005352   0.001306   0.002691
     H   29   0.001621   0.000960   0.000580   0.004782   0.001387   0.001210
     H   30   0.001468   0.001244   0.000587   0.003717   0.002018   0.001383
     C   31   0.002597   0.001873   0.000892   0.004374   0.003007   0.001520
     H   32   0.031555   0.019211   0.011647   0.051089   0.054579   0.021534
     C   33   0.001021   0.001114   0.000786   0.001799   0.001006   0.001151
     H   34   0.000836   0.000442   0.000695   0.000809   0.000587   0.000475
     H   35   0.001145   0.000987   0.000463   0.001581   0.001019   0.000870
     C   36   0.001907   0.001592   0.000873   0.001807   0.001279   0.000972
     H   37   0.001041   0.001054   0.000618   0.001246   0.000768   0.000888
     H   38   0.001154   0.000850   0.000460   0.000925   0.000858   0.000577
     H   39   0.000878   0.000587   0.000429   0.001012   0.000482   0.000542
     H   40   0.003423   0.018675   0.007676   0.002704   0.001733   0.001743


                  H 19       O 20       C 21       C 22       C 23       C 24
 ------------------------------------------------------------------------------
     H   19   4.313339
     O   20   0.018470   9.892374
     C   21   0.021836   7.811708  16.434278
     C   22   0.013868   2.024645   4.310266  15.727838
     C   23   0.006457   0.547514   1.700830   8.124955  15.905963
     C   24   0.013350   0.415829   0.872227   1.702885   4.910599  15.710815
     C   25   0.010987   0.360896   1.270446   0.940353   1.811047   7.965880
     C   26   0.020105   1.639158   4.401140   1.022553   0.735330   1.472740
     H   27   0.002971   0.059753   0.743387   3.483886   0.785996   0.121112
     H   28   0.003114   0.030569   0.151562   0.755622   3.464108   0.710703
     H   29   0.003633   0.025381   0.029560   0.057730   0.739204   3.483784
     H   30   0.001695   0.026204   0.086184   0.049466   0.130753   0.751472
     C   31   0.001726   0.145516   0.633249   0.097623   0.092322   0.119236
     H   32   0.024568   0.998197   1.348606   0.350675   0.389210   0.478675
     C   33   0.000892   0.081541   0.058560   0.014827   0.010604   0.015487
     H   34   0.000456   0.021443   0.048489   0.018571   0.014409   0.018106
     H   35   0.000608   0.023403   0.042479   0.017144   0.016925   0.021305
     C   36   0.001058   0.044481   0.041189   0.015313   0.012853   0.016492
     H   37   0.000495   0.065200   0.089851   0.023621   0.017919   0.016143
     H   38   0.000544   0.015076   0.013735   0.005068   0.003113   0.005024
     H   39   0.000531   0.016705   0.012628   0.004437   0.002884   0.004814
     H   40   0.000812   0.019199   0.007726   0.003745   0.004111   0.005425


                  C 25       C 26       H 27       H 28       H 29       H 30
 ------------------------------------------------------------------------------
     C   25  15.685005
     C   26   4.517317  13.388702
     H   27   0.035542   0.048746   4.393049
     H   28   0.065216   0.038024   0.048102   4.343976
     H   29   0.807826   0.104672   0.006923   0.022652   4.413448
     H   30   3.446369   0.716610   0.012393   0.012934   0.045673   4.334851
     C   31   0.763850   2.935974   0.009463   0.005851   0.012447   0.029691
     H   32   1.073870   1.313338   0.028319   0.024364   0.028227   0.046623
     C   33   0.048874   0.594610   0.001811   0.001023   0.001814   0.003454
     H   34   0.042445   0.713396   0.002227   0.001375   0.001866   0.008261
     H   35   0.052297   0.685283   0.001853   0.000944   0.002080   0.018558
     C   36   0.014546   0.051044   0.002392   0.001998   0.002185   0.002703
     H   37   0.013483   0.027013   0.002600   0.000972   0.001079   0.001768
     H   38   0.005745   0.017612   0.000849   0.000816   0.001004   0.001676
     H   39   0.004181   0.025220   0.000986   0.000885   0.000872   0.000814
     H   40   0.006229   0.014955   0.002137   0.000649   0.000573   0.000624


                  C 31       H 32       C 33       H 34       H 35       C 36
 ------------------------------------------------------------------------------
     C   31  11.944302
     H   32   0.579703   1.070604
     C   33   3.737755   0.023345  16.878252
     H   34   3.204250   0.039968   0.754534   4.169345
     H   35   3.262395   0.047753   0.729143   0.444497   4.219219
     C   36   0.874639   0.042382  10.450118   0.031570   0.035156  15.983128
     H   37   0.669364   0.017967   3.425607   0.015003   0.043156   0.808251
     H   38   0.078269   0.019609   0.810608   0.012396   0.022716   3.560319
     H   39   0.140850   0.016333   0.810332   0.019455   0.004229   3.563903
     H   40   0.001259   0.018818   0.001468   0.000587   0.001244   0.003717


                  H 37       H 38       H 39       H 40
 ------------------------------------------------------
     H   37   4.318173
     H   38   0.140450   4.307637
     H   39   0.067300   0.465670   4.313339
     H   40   0.002018   0.001383   0.001695   4.334851


          HEAT OF FORMATION =      22.588465 KCALS/MOLE

          ZERO POINT ENERGY     194.357 KCAL/MOL

         NOTE: SYSTEM IS NOT A GROUND STATE, THEREFORE ZERO POINT
         ENERGY IS NOT MEANINGFULL. ZERO POINT ENERGY PRINTED
         DOES NOT INCLUDE THE  2 IMAGINARY FREQUENCIES


           NORMAL COORDINATE ANALYSIS (Total motion = 1 Angstrom)


   Root No.       1         2         3         4         5         6         7         8

                 1 Ag      1 Au      2 Au      2 Ag      3 Au      3 Ag      4 Au      4 Ag  

               -1728.4     -30.2      29.8      55.8      63.7      72.9      79.0      94.9
  
           1    0.0200    0.0060   -0.0073    0.0011    0.0024   -0.0028   -0.0017    0.0098
           2    0.0059    0.0061   -0.0059    0.0057    0.0100   -0.0084   -0.0159    0.0147
           3   -0.0061   -0.0300   -0.0110    0.0079    0.0084   -0.0069   -0.0031    0.0194
           4   -0.0279    0.0045   -0.0071    0.0013    0.0027   -0.0028   -0.0009    0.0103
           5    0.0083    0.0065    0.0004    0.0022    0.0052   -0.0084   -0.0099    0.0091
           6   -0.0062   -0.0123   -0.0053    0.0046    0.0015   -0.0059    0.0006    0.0052
           7    0.0086    0.0080   -0.0145    0.0045    0.0071   -0.0042   -0.0080    0.0155
           8    0.0072    0.0053    0.0041    0.0006    0.0026   -0.0078   -0.0069    0.0064
           9   -0.0005    0.0294   -0.0037    0.0128   -0.0018   -0.0000    0.0030   -0.0203
          10   -0.0062    0.0062   -0.0160    0.0049    0.0097   -0.0039   -0.0090    0.0184
          11    0.0048   -0.0017    0.0119   -0.0044   -0.0028   -0.0068   -0.0016    0.0039
          12   -0.0007    0.0430    0.0025    0.0120   -0.0148   -0.0025    0.0060   -0.0349
          13    0.0019    0.0014   -0.0104    0.0024    0.0078   -0.0014   -0.0029    0.0130
          14   -0.0077   -0.0073    0.0163   -0.0078   -0.0061   -0.0067    0.0012    0.0039
          15   -0.0009    0.0199    0.0068    0.0020   -0.0242   -0.0111    0.0039   -0.0151
          16    0.0132   -0.0020   -0.0028   -0.0008    0.0018   -0.0008    0.0044    0.0061
          17    0.0050   -0.0033    0.0129   -0.0053   -0.0037   -0.0067   -0.0013    0.0044
          18   -0.0010   -0.0168    0.0049   -0.0073   -0.0172   -0.0126    0.0016    0.0087
          19   -0.0111    0.0033   -0.0009   -0.0013   -0.0021   -0.0020    0.0039    0.0064
          20   -0.0183    0.0079    0.0043   -0.0000    0.0011   -0.0080   -0.0084    0.0074
          21    0.0243   -0.0292   -0.0015   -0.0070   -0.0038   -0.0073    0.0000    0.0064
          22    0.0012    0.0111   -0.0186    0.0063    0.0086   -0.0060   -0.0120    0.0182
          23    0.0029    0.0099    0.0006    0.0034    0.0055   -0.0076   -0.0090    0.0064
          24   -0.0033    0.0438   -0.0073    0.0205    0.0065    0.0066    0.0051   -0.0293
          25    0.0029    0.0065   -0.0216    0.0071    0.0136   -0.0056   -0.0135    0.0244
          26    0.0000   -0.0033    0.0148   -0.0058   -0.0047   -0.0060    0.0009    0.0015
          27    0.0012    0.0710    0.0044    0.0190   -0.0180    0.0022    0.0103   -0.0601
          28    0.0014   -0.0004   -0.0121    0.0028    0.0109   -0.0004   -0.0036    0.0139
          29    0.0024   -0.0173    0.0224   -0.0123   -0.0099   -0.0064    0.0070    0.0029
          30    0.0002    0.0301    0.0116    0.0019   -0.0356   -0.0153    0.0054   -0.0189
          31    0.0019   -0.0080    0.0117   -0.0038   -0.0103   -0.0008    0.0122    0.0101
          32    0.0002   -0.0019    0.0062    0.0103    0.0080   -0.0140    0.0058    0.0150
          33   -0.0074   -0.0097   -0.0083   -0.0178   -0.0099   -0.0007   -0.0211   -0.0036
          34    0.1411   -0.0090   -0.0041   -0.0011    0.0053    0.0037    0.0055   -0.0086
          35    0.1879    0.0026   -0.0028   -0.0096    0.0046    0.0017   -0.0168   -0.0089
          36   -0.2429    0.0021   -0.0086   -0.0098   -0.0079   -0.0029   -0.0204   -0.0009
          37    0.0002   -0.0102    0.0122   -0.0074   -0.0150    0.0028    0.0110    0.0100
          38    0.0000   -0.0045   -0.0189   -0.0140   -0.0057   -0.0149    0.0122    0.0091
          39   -0.0004    0.0022    0.0051    0.0141    0.0196   -0.0158   -0.0207    0.0013
          40    0.0004   -0.0049    0.0331    0.0240    0.0083   -0.0070    0.0130    0.0180
          41   -0.0002    0.0015    0.0115    0.0124    0.0089   -0.0125    0.0007    0.0139
          42   -0.0027   -0.0055   -0.0198   -0.0440   -0.0284    0.0103   -0.0348   -0.0152
          43    0.0003   -0.0165   -0.0010   -0.0306   -0.0326    0.0079    0.0134    0.0047
          44   -0.0009   -0.0126    0.0241    0.0363    0.0236   -0.0232    0.0222    0.0284
          45   -0.0045   -0.0175   -0.0114   -0.0273   -0.0188    0.0018   -0.0162   -0.0038
          46    0.0001   -0.0077    0.0330    0.0184   -0.0041    0.0156   -0.0087    0.0197
          47   -0.0000   -0.0057   -0.0288   -0.0268   -0.0103   -0.0232    0.0239    0.0039
          48    0.0002    0.0049    0.0128    0.0117    0.0395   -0.0674    0.0309   -0.0109
          49   -0.0008   -0.0141   -0.0057   -0.0327   -0.0281   -0.0048    0.0263    0.0018
          50    0.0018   -0.0041   -0.0285   -0.0205   -0.0123   -0.0088    0.0072    0.0091
          51    0.0044    0.0082    0.0087    0.0389    0.0237    0.0141   -0.0600    0.0155
          52    0.0000   -0.0035    0.0514    0.0443    0.0096    0.0226   -0.0239    0.0284
          53    0.0001   -0.0053   -0.0195   -0.0203   -0.0039   -0.0297    0.0292    0.0042
          54   -0.0005   -0.0020    0.0102   -0.0117    0.0365   -0.0987    0.0723   -0.0244
          55    0.0004   -0.0087    0.0334    0.0158   -0.0081    0.0197   -0.0113    0.0197
          56    0.0003   -0.0074   -0.0471   -0.0448   -0.0209   -0.0242    0.0293   -0.0012
          57    0.0002    0.0112    0.0228    0.0336    0.0617   -0.0828    0.0370   -0.0078
          58   -0.0200    0.0060   -0.0073   -0.0011    0.0025    0.0028   -0.0017   -0.0098
          59   -0.0059    0.0061   -0.0059   -0.0057    0.0099    0.0084   -0.0159   -0.0147
          60    0.0061   -0.0300   -0.0110   -0.0079    0.0083    0.0069   -0.0031   -0.0193
          61    0.0279    0.0045   -0.0071   -0.0013    0.0028    0.0028   -0.0009   -0.0103
          62   -0.0083    0.0065    0.0005   -0.0022    0.0051    0.0084   -0.0099   -0.0091
          63    0.0062   -0.0123   -0.0053   -0.0046    0.0014    0.0059    0.0006   -0.0051
          64   -0.0086    0.0080   -0.0145   -0.0045    0.0071    0.0042   -0.0081   -0.0155
          65   -0.0072    0.0054    0.0042   -0.0006    0.0026    0.0078   -0.0068   -0.0064
          66    0.0005    0.0294   -0.0036   -0.0128   -0.0019    0.0000    0.0029    0.0204
          67    0.0062    0.0062   -0.0160   -0.0050    0.0098    0.0039   -0.0090   -0.0184
          68   -0.0048   -0.0017    0.0118    0.0044   -0.0029    0.0068   -0.0015   -0.0039
          69    0.0007    0.0430    0.0026   -0.0120   -0.0149    0.0025    0.0059    0.0349
          70   -0.0019    0.0014   -0.0104   -0.0024    0.0078    0.0014   -0.0029   -0.0130
          71    0.0077   -0.0073    0.0162    0.0078   -0.0061    0.0067    0.0013   -0.0040
          72    0.0009    0.0199    0.0068   -0.0020   -0.0242    0.0111    0.0039    0.0150
          73   -0.0132   -0.0020   -0.0028    0.0008    0.0019    0.0008    0.0044   -0.0061
          74   -0.0050   -0.0033    0.0129    0.0053   -0.0037    0.0067   -0.0012   -0.0044
          75    0.0010   -0.0168    0.0048    0.0074   -0.0170    0.0126    0.0016   -0.0087
          76    0.0111    0.0033   -0.0010    0.0013   -0.0020    0.0020    0.0039   -0.0065
          77    0.0183    0.0079    0.0043    0.0000    0.0011    0.0080   -0.0084   -0.0074
          78   -0.0243   -0.0292   -0.0016    0.0070   -0.0037    0.0073    0.0000   -0.0063
          79   -0.0012    0.0111   -0.0186   -0.0063    0.0087    0.0061   -0.0120   -0.0181
          80   -0.0029    0.0099    0.0006   -0.0034    0.0055    0.0076   -0.0090   -0.0064
          81    0.0033    0.0439   -0.0072   -0.0205    0.0063   -0.0066    0.0050    0.0294
          82   -0.0029    0.0065   -0.0216   -0.0071    0.0137    0.0056   -0.0136   -0.0244
          83   -0.0000   -0.0033    0.0148    0.0058   -0.0047    0.0060    0.0010   -0.0016
          84   -0.0012    0.0710    0.0044   -0.0189   -0.0182   -0.0022    0.0103    0.0602
          85   -0.0014   -0.0004   -0.0121   -0.0028    0.0109    0.0005   -0.0036   -0.0139
          86   -0.0024   -0.0173    0.0223    0.0123   -0.0099    0.0064    0.0071   -0.0030
          87   -0.0002    0.0301    0.0115   -0.0019   -0.0354    0.0152    0.0054    0.0188
          88   -0.0023   -0.0022    0.0024    0.0026   -0.0014   -0.0005    0.0079   -0.0011
          89    0.0017   -0.0049    0.0165    0.0071   -0.0061    0.0062    0.0010   -0.0026
          90   -0.0042   -0.0391    0.0073    0.0157   -0.0216    0.0174    0.0017   -0.0262
          91   -0.0019   -0.0081    0.0116    0.0038   -0.0102    0.0008    0.0123   -0.0101
          92   -0.0002   -0.0019    0.0063   -0.0103    0.0078    0.0140    0.0058   -0.0148
          93    0.0074   -0.0098   -0.0083    0.0178   -0.0097    0.0008   -0.0210    0.0034
          94   -0.1411   -0.0090   -0.0041    0.0011    0.0052   -0.0037    0.0055    0.0087
          95   -0.1879    0.0026   -0.0028    0.0096    0.0046   -0.0016   -0.0168    0.0089
          96    0.2429    0.0021   -0.0086    0.0098   -0.0078    0.0029   -0.0204    0.0007
          97   -0.0002   -0.0102    0.0121    0.0075   -0.0149   -0.0028    0.0111   -0.0100
          98   -0.0000   -0.0044   -0.0188    0.0141   -0.0058    0.0149    0.0121   -0.0090
          99    0.0004    0.0022    0.0050   -0.0141    0.0197    0.0158   -0.0206   -0.0013
         100   -0.0003   -0.0166   -0.0011    0.0307   -0.0324   -0.0079    0.0134   -0.0049
         101    0.0009   -0.0126    0.0242   -0.0363    0.0234    0.0232    0.0222   -0.0279
         102    0.0045   -0.0175   -0.0115    0.0273   -0.0186   -0.0018   -0.0161    0.0035
         103   -0.0004   -0.0050    0.0330   -0.0240    0.0083    0.0070    0.0130   -0.0179
         104    0.0002    0.0015    0.0115   -0.0124    0.0088    0.0125    0.0007   -0.0138
         105    0.0027   -0.0056   -0.0199    0.0440   -0.0282   -0.0103   -0.0347    0.0147
         106   -0.0001   -0.0078    0.0329   -0.0184   -0.0040   -0.0156   -0.0086   -0.0196
         107    0.0000   -0.0057   -0.0287    0.0268   -0.0103    0.0232    0.0239   -0.0040
         108   -0.0002    0.0049    0.0127   -0.0118    0.0396    0.0674    0.0309    0.0107
         109    0.0008   -0.0142   -0.0058    0.0328   -0.0279    0.0047    0.0264   -0.0020
         110   -0.0018   -0.0040   -0.0284    0.0205   -0.0124    0.0088    0.0071   -0.0091
         111   -0.0044    0.0082    0.0087   -0.0389    0.0237   -0.0140   -0.0600   -0.0154
         112   -0.0000   -0.0035    0.0512   -0.0443    0.0096   -0.0226   -0.0239   -0.0282
         113   -0.0001   -0.0053   -0.0195    0.0204   -0.0039    0.0297    0.0292   -0.0042
         114    0.0005   -0.0021    0.0101    0.0116    0.0366    0.0987    0.0724    0.0241
         115   -0.0004   -0.0087    0.0333   -0.0158   -0.0080   -0.0197   -0.0112   -0.0196
         116   -0.0003   -0.0074   -0.0469    0.0449   -0.0209    0.0242    0.0292    0.0011
         117   -0.0002    0.0112    0.0228   -0.0338    0.0617    0.0828    0.0370    0.0078
         118    0.0023   -0.0022    0.0024   -0.0026   -0.0014    0.0005    0.0079    0.0011
         119   -0.0017   -0.0049    0.0165   -0.0071   -0.0061   -0.0062    0.0009    0.0025
         120    0.0042   -0.0391    0.0074   -0.0157   -0.0219   -0.0174    0.0016    0.0261


   Root No.       9        10        11        12        13        14        15        16

                 5 Au      5 Ag      6 Au      6 Ag      7 Ag      7 Au      8 Ag      8 Au  

                  98.1     123.9     130.3     135.6     224.4     234.8     245.9     254.9
  
           1    0.0030    0.0077    0.0022   -0.0009    0.0095    0.0084    0.0084    0.0059
           2   -0.0034   -0.0119    0.0112   -0.0115   -0.0013   -0.0203   -0.0214    0.0135
           3   -0.0221    0.0049   -0.0048   -0.0072    0.0302   -0.0045   -0.0299    0.0396
           4    0.0022    0.0077    0.0016   -0.0002    0.0079    0.0082    0.0098    0.0054
           5   -0.0003   -0.0088    0.0054   -0.0091   -0.0043   -0.0103   -0.0090   -0.0021
           6   -0.0145    0.0086   -0.0143   -0.0136   -0.0081   -0.0008   -0.0038   -0.0052
           7   -0.0009    0.0004    0.0143   -0.0020    0.0040   -0.0046   -0.0009    0.0003
           8    0.0018   -0.0043   -0.0012   -0.0091   -0.0011   -0.0048   -0.0050    0.0014
           9   -0.0145    0.0250   -0.0335   -0.0171   -0.0215   -0.0089   -0.0014   -0.0231
          10   -0.0021    0.0039    0.0100   -0.0044   -0.0030   -0.0072   -0.0008   -0.0088
          11    0.0077    0.0020   -0.0099   -0.0077    0.0075    0.0066    0.0038    0.0100
          12   -0.0094    0.0038   -0.0062   -0.0024    0.0110    0.0011   -0.0016    0.0173
          13   -0.0005    0.0160   -0.0049   -0.0057   -0.0011   -0.0003    0.0067   -0.0075
          14    0.0112    0.0042   -0.0120   -0.0056    0.0101    0.0118    0.0090    0.0092
          15   -0.0016   -0.0275    0.0346    0.0115    0.0195    0.0061   -0.0012    0.0129
          16    0.0021    0.0187   -0.0092   -0.0008    0.0115    0.0125    0.0141    0.0057
          17    0.0087    0.0028   -0.0093   -0.0069    0.0074    0.0057    0.0039    0.0074
          18   -0.0005   -0.0246    0.0261   -0.0002   -0.0146   -0.0011    0.0033   -0.0248
          19    0.0059    0.0155   -0.0040    0.0030    0.0130    0.0135    0.0156    0.0025
          20    0.0047   -0.0039    0.0021   -0.0071   -0.0028   -0.0067   -0.0033   -0.0073
          21   -0.0046   -0.0046   -0.0046   -0.0179   -0.0172    0.0019    0.0035   -0.0115
          22   -0.0032   -0.0087    0.0274   -0.0004    0.0027   -0.0112   -0.0069   -0.0019
          23   -0.0014   -0.0053    0.0011   -0.0103   -0.0066   -0.0117   -0.0091   -0.0045
          24   -0.0214    0.0502   -0.0658   -0.0282   -0.0438   -0.0199   -0.0012   -0.0457
          25   -0.0055   -0.0029    0.0185   -0.0056   -0.0092   -0.0146   -0.0077   -0.0155
          26    0.0093    0.0054   -0.0141   -0.0070    0.0102    0.0105    0.0075    0.0126
          27   -0.0117    0.0110   -0.0152   -0.0010    0.0246    0.0025   -0.0019    0.0435
          28   -0.0018    0.0209   -0.0121   -0.0099   -0.0072   -0.0026    0.0065   -0.0116
          29    0.0136    0.0075   -0.0167   -0.0035    0.0144    0.0207    0.0163    0.0118
          30    0.0017   -0.0501    0.0671    0.0290    0.0439    0.0125   -0.0034    0.0307
          31    0.0024    0.0176   -0.0034    0.0136    0.0044   -0.0042   -0.0005    0.0020
          32   -0.0223   -0.0084    0.0078    0.0087   -0.0146    0.0052    0.0111   -0.0148
          33    0.0297   -0.0003   -0.0093   -0.0382   -0.0011   -0.0072   -0.0072   -0.0058
          34   -0.0025    0.0109   -0.0082   -0.0044    0.0030    0.0149    0.0022    0.0145
          35    0.0099    0.0014    0.0087   -0.0107    0.0044   -0.0173   -0.0082   -0.0047
          36    0.0180   -0.0035   -0.0002   -0.0181   -0.0196   -0.0010    0.0033   -0.0166
          37    0.0043    0.0184   -0.0054    0.0124   -0.0003   -0.0131   -0.0099    0.0019
          38   -0.0070   -0.0006    0.0023    0.0051   -0.0048    0.0081    0.0147   -0.0122
          39    0.0118   -0.0069    0.0019   -0.0308    0.0124    0.0255    0.0292   -0.0085
          40   -0.0198    0.0099    0.0055    0.0246   -0.0017    0.0081    0.0147   -0.0037
          41   -0.0172   -0.0083    0.0076    0.0053   -0.0124    0.0010    0.0064   -0.0129
          42    0.0669    0.0086   -0.0206   -0.0599    0.0108   -0.0333   -0.0387    0.0060
          43    0.0207    0.0246   -0.0120    0.0072    0.0008   -0.0295   -0.0288    0.0071
          44   -0.0628   -0.0171    0.0185    0.0333   -0.0329    0.0224    0.0331   -0.0272
          45    0.0310    0.0019   -0.0119   -0.0365   -0.0064   -0.0175   -0.0184   -0.0050
          46   -0.0147    0.0071   -0.0014    0.0076   -0.0102   -0.0107   -0.0048   -0.0083
          47    0.0026    0.0056    0.0006    0.0090   -0.0006    0.0059    0.0112   -0.0070
          48    0.0219    0.0107    0.0091    0.0047   -0.0030   -0.0070   -0.0070    0.0001
          49    0.0217    0.0289   -0.0108    0.0150    0.0005   -0.0262   -0.0258    0.0088
          50   -0.0035   -0.0004    0.0002    0.0003    0.0037    0.0152    0.0220   -0.0105
          51   -0.0089   -0.0237    0.0051   -0.0485    0.0334    0.0651    0.0736   -0.0147
          52   -0.0327   -0.0028    0.0044    0.0058   -0.0150   -0.0028    0.0062   -0.0175
          53   -0.0005    0.0063    0.0028    0.0152   -0.0111   -0.0063   -0.0016   -0.0092
          54    0.0415    0.0289    0.0060    0.0262   -0.0266   -0.0563   -0.0636    0.0092
          55   -0.0132    0.0069   -0.0030    0.0054   -0.0151   -0.0176   -0.0123   -0.0098
          56    0.0146    0.0107   -0.0032    0.0063    0.0145    0.0164    0.0211    0.0001
          57    0.0092    0.0083    0.0182    0.0153    0.0065    0.0127    0.0159   -0.0001
          58    0.0030   -0.0077    0.0023    0.0009   -0.0095    0.0084   -0.0084    0.0059
          59   -0.0035    0.0119    0.0111    0.0115    0.0014   -0.0202    0.0214    0.0135
          60   -0.0223   -0.0049   -0.0049    0.0072   -0.0302   -0.0044    0.0299    0.0396
          61    0.0022   -0.0077    0.0016    0.0002   -0.0079    0.0081   -0.0098    0.0054
          62   -0.0004    0.0088    0.0054    0.0091    0.0044   -0.0103    0.0090   -0.0021
          63   -0.0145   -0.0086   -0.0143    0.0136    0.0081   -0.0008    0.0038   -0.0052
          64   -0.0010   -0.0004    0.0143    0.0020   -0.0040   -0.0046    0.0009    0.0003
          65    0.0017    0.0043   -0.0012    0.0091    0.0011   -0.0047    0.0050    0.0014
          66   -0.0143   -0.0251   -0.0335    0.0171    0.0215   -0.0088    0.0014   -0.0231
          67   -0.0021   -0.0039    0.0100    0.0044    0.0030   -0.0072    0.0008   -0.0087
          68    0.0076   -0.0020   -0.0099    0.0077   -0.0075    0.0066   -0.0038    0.0100
          69   -0.0091   -0.0038   -0.0061    0.0024   -0.0110    0.0010    0.0016    0.0172
          70   -0.0006   -0.0160   -0.0049    0.0057    0.0011   -0.0003   -0.0067   -0.0075
          71    0.0111   -0.0042   -0.0120    0.0056   -0.0101    0.0119   -0.0090    0.0092
          72   -0.0014    0.0275    0.0347   -0.0115   -0.0195    0.0060    0.0012    0.0128
          73    0.0021   -0.0188   -0.0092    0.0008   -0.0115    0.0125   -0.0141    0.0056
          74    0.0087   -0.0028   -0.0093    0.0069   -0.0074    0.0057   -0.0040    0.0074
          75   -0.0005    0.0246    0.0261    0.0002    0.0146   -0.0012   -0.0033   -0.0249
          76    0.0059   -0.0155   -0.0039   -0.0030   -0.0130    0.0135   -0.0156    0.0025
          77    0.0047    0.0039    0.0021    0.0071    0.0028   -0.0067    0.0033   -0.0073
          78   -0.0046    0.0046   -0.0045    0.0179    0.0172    0.0019   -0.0035   -0.0115
          79   -0.0032    0.0087    0.0274    0.0004   -0.0027   -0.0113    0.0069   -0.0019
          80   -0.0015    0.0053    0.0011    0.0103    0.0066   -0.0117    0.0091   -0.0045
          81   -0.0212   -0.0503   -0.0657    0.0282    0.0438   -0.0198    0.0012   -0.0457
          82   -0.0056    0.0029    0.0185    0.0056    0.0092   -0.0147    0.0077   -0.0154
          83    0.0093   -0.0054   -0.0141    0.0070   -0.0102    0.0105   -0.0075    0.0125
          84   -0.0112   -0.0109   -0.0151    0.0010   -0.0246    0.0025    0.0019    0.0434
          85   -0.0019   -0.0209   -0.0121    0.0099    0.0072   -0.0026   -0.0065   -0.0116
          86    0.0136   -0.0075   -0.0166    0.0035   -0.0144    0.0208   -0.0163    0.0118
          87    0.0020    0.0501    0.0671   -0.0290   -0.0439    0.0125    0.0034    0.0307
          88    0.0058   -0.0247   -0.0185    0.0004   -0.0206    0.0218   -0.0195    0.0179
          89    0.0115   -0.0055   -0.0138    0.0062   -0.0123    0.0117   -0.0079    0.0130
          90    0.0026    0.0414    0.0472   -0.0043    0.0320   -0.0062   -0.0055   -0.0549
          91    0.0024   -0.0176   -0.0034   -0.0136   -0.0044   -0.0043    0.0005    0.0019
          92   -0.0224    0.0084    0.0078   -0.0087    0.0146    0.0053   -0.0111   -0.0148
          93    0.0297    0.0002   -0.0093    0.0382    0.0011   -0.0072    0.0072   -0.0058
          94   -0.0025   -0.0109   -0.0082    0.0044   -0.0030    0.0149   -0.0023    0.0145
          95    0.0099   -0.0015    0.0088    0.0107   -0.0044   -0.0173    0.0082   -0.0047
          96    0.0181    0.0034   -0.0002    0.0181    0.0196   -0.0010   -0.0033   -0.0166
          97    0.0043   -0.0184   -0.0053   -0.0124    0.0003   -0.0132    0.0099    0.0019
          98   -0.0070    0.0006    0.0023   -0.0051    0.0048    0.0082   -0.0147   -0.0121
          99    0.0118    0.0069    0.0019    0.0308   -0.0124    0.0254   -0.0292   -0.0085
         100    0.0208   -0.0246   -0.0119   -0.0072   -0.0008   -0.0295    0.0289    0.0070
         101   -0.0630    0.0171    0.0185   -0.0333    0.0329    0.0225   -0.0331   -0.0272
         102    0.0311   -0.0020   -0.0118    0.0365    0.0064   -0.0175    0.0185   -0.0051
         103   -0.0199   -0.0099    0.0056   -0.0246    0.0017    0.0080   -0.0147   -0.0038
         104   -0.0173    0.0083    0.0076   -0.0053    0.0124    0.0010   -0.0064   -0.0129
         105    0.0671   -0.0086   -0.0205    0.0599   -0.0108   -0.0334    0.0387    0.0060
         106   -0.0148   -0.0071   -0.0013   -0.0076    0.0102   -0.0107    0.0048   -0.0084
         107    0.0026   -0.0056    0.0006   -0.0090    0.0006    0.0059   -0.0112   -0.0070
         108    0.0220   -0.0108    0.0091   -0.0047    0.0030   -0.0070    0.0070    0.0001
         109    0.0217   -0.0289   -0.0107   -0.0150   -0.0005   -0.0262    0.0258    0.0088
         110   -0.0036    0.0004    0.0002   -0.0003   -0.0037    0.0153   -0.0220   -0.0104
         111   -0.0090    0.0237    0.0051    0.0485   -0.0335    0.0651   -0.0737   -0.0147
         112   -0.0329    0.0028    0.0044   -0.0058    0.0150   -0.0028   -0.0062   -0.0176
         113   -0.0006   -0.0063    0.0028   -0.0152    0.0111   -0.0062    0.0016   -0.0092
         114    0.0417   -0.0289    0.0061   -0.0262    0.0267   -0.0563    0.0637    0.0092
         115   -0.0133   -0.0069   -0.0029   -0.0054    0.0151   -0.0176    0.0124   -0.0099
         116    0.0146   -0.0107   -0.0032   -0.0063   -0.0145    0.0165   -0.0212    0.0002
         117    0.0091   -0.0083    0.0182   -0.0153   -0.0065    0.0126   -0.0159   -0.0001
         118    0.0058    0.0247   -0.0185   -0.0004    0.0206    0.0218    0.0195    0.0179
         119    0.0116    0.0055   -0.0138   -0.0062    0.0123    0.0117    0.0079    0.0131
         120    0.0026   -0.0413    0.0471    0.0043   -0.0320   -0.0061    0.0054   -0.0548


   Root No.      17        18        19        20        21        22        23        24

                 9 Ag      9 Au     10 Au     10 Ag     11 Ag     11 Au     12 Ag     13 Ag  

                 307.1     352.7     352.9     357.9     372.3     417.9     433.1     449.6
  
           1    0.0083   -0.0073   -0.0102   -0.0144   -0.0040   -0.0014   -0.0026    0.0121
           2    0.0105    0.0147    0.0016    0.0055    0.0211    0.0055   -0.0148   -0.0084
           3   -0.0283    0.0051   -0.0048    0.0018   -0.0101   -0.0068   -0.0017    0.0121
           4    0.0104   -0.0074   -0.0086   -0.0137   -0.0020    0.0012   -0.0035    0.0108
           5    0.0181   -0.0014   -0.0012   -0.0016    0.0072    0.0035    0.0115    0.0009
           6   -0.0203   -0.0063   -0.0076   -0.0052   -0.0124   -0.0061   -0.0094   -0.0212
           7    0.0188   -0.0054   -0.0019   -0.0047    0.0014    0.0039    0.0021   -0.0035
           8    0.0152   -0.0020   -0.0071   -0.0083    0.0067    0.0019    0.0097    0.0085
           9   -0.0160    0.0085   -0.0193   -0.0146    0.0054   -0.0110    0.0159   -0.0046
          10    0.0143   -0.0031   -0.0078   -0.0085    0.0021   -0.0012    0.0099   -0.0074
          11    0.0116   -0.0047   -0.0132   -0.0167    0.0034    0.0018   -0.0024    0.0044
          12    0.0171   -0.0055    0.0182    0.0109    0.0017    0.0184   -0.0157    0.0135
          13    0.0086   -0.0049    0.0012   -0.0017   -0.0037    0.0073    0.0000   -0.0049
          14    0.0052   -0.0048   -0.0118   -0.0145   -0.0016   -0.0002   -0.0038   -0.0023
          15   -0.0030   -0.0036   -0.0065   -0.0039   -0.0082   -0.0154    0.0120   -0.0228
          16    0.0007   -0.0082    0.0013   -0.0028   -0.0118    0.0021   -0.0042   -0.0055
          17    0.0099   -0.0034   -0.0091   -0.0110    0.0013    0.0005    0.0003   -0.0069
          18   -0.0219    0.0029   -0.0172   -0.0152    0.0041    0.0120   -0.0020    0.0230
          19   -0.0014   -0.0032   -0.0049   -0.0062   -0.0084   -0.0040    0.0001    0.0009
          20    0.0128   -0.0007    0.0012    0.0031    0.0007   -0.0017    0.0114   -0.0033
          21   -0.0061   -0.0164    0.0118    0.0048   -0.0102    0.0202   -0.0247   -0.0072
          22    0.0275   -0.0069    0.0084    0.0061    0.0007    0.0075    0.0063   -0.0107
          23    0.0187    0.0004   -0.0038   -0.0040    0.0103    0.0039    0.0179    0.0077
          24   -0.0278    0.0251   -0.0390   -0.0300    0.0240   -0.0159    0.0435    0.0199
          25    0.0136   -0.0010   -0.0133   -0.0108    0.0044   -0.0092    0.0220   -0.0121
          26    0.0107   -0.0057   -0.0108   -0.0157    0.0017    0.0051   -0.0076    0.0050
          27    0.0498   -0.0108    0.0539    0.0329    0.0122    0.0617   -0.0459    0.0654
          28    0.0105   -0.0055    0.0047    0.0000   -0.0011    0.0158   -0.0072    0.0031
          29   -0.0059   -0.0064   -0.0114   -0.0147   -0.0085    0.0005   -0.0088   -0.0006
          30   -0.0068   -0.0011   -0.0223   -0.0126   -0.0156   -0.0506    0.0450   -0.0554
          31   -0.0081    0.0260    0.0031    0.0084    0.0231    0.0049   -0.0004   -0.0046
          32    0.0051   -0.0124    0.0042    0.0013   -0.0115    0.0058   -0.0069   -0.0045
          33    0.0047   -0.0101    0.0117    0.0113   -0.0103   -0.0020    0.0006   -0.0016
          34   -0.0177   -0.0178    0.0005    0.0070   -0.0119    0.0079   -0.0084   -0.0243
          35   -0.0121    0.0015    0.0127    0.0058   -0.0221    0.0176    0.0225    0.0125
          36   -0.0008   -0.0065    0.0048    0.0093   -0.0129   -0.0111   -0.0246   -0.0099
          37   -0.0043    0.0214    0.0041    0.0090    0.0209    0.0062   -0.0021   -0.0073
          38    0.0011   -0.0024    0.0210    0.0227   -0.0124   -0.0174    0.0091    0.0083
          39   -0.0109    0.0203    0.0115    0.0161    0.0125    0.0005    0.0033   -0.0020
          40   -0.0159    0.0360   -0.0075   -0.0027    0.0377    0.0266   -0.0211   -0.0173
          41    0.0071   -0.0065    0.0009   -0.0005   -0.0040    0.0079   -0.0033   -0.0068
          42    0.0203   -0.0105    0.0179    0.0214   -0.0123   -0.0242    0.0365    0.0086
          43    0.0013    0.0173    0.0113    0.0171    0.0156   -0.0072    0.0132    0.0023
          44   -0.0111   -0.0107   -0.0038   -0.0120   -0.0027    0.0409   -0.0496   -0.0198
          45    0.0062   -0.0139    0.0148    0.0136   -0.0118   -0.0013    0.0006   -0.0003
          46    0.0055   -0.0049    0.0214    0.0236   -0.0127   -0.0171    0.0089    0.0064
          47   -0.0035    0.0107    0.0132    0.0163    0.0041   -0.0066    0.0041    0.0018
          48    0.0006   -0.0002    0.0035    0.0042   -0.0015   -0.0045    0.0026    0.0019
          49   -0.0029    0.0204   -0.0007    0.0040    0.0229    0.0085   -0.0049   -0.0098
          50   -0.0059    0.0148    0.0203    0.0254    0.0028   -0.0162    0.0105    0.0068
          51   -0.0310    0.0634    0.0220    0.0354    0.0437   -0.0057    0.0153    0.0027
          52    0.0094   -0.0173    0.0398    0.0425   -0.0357   -0.0444    0.0245    0.0236
          53    0.0071   -0.0154    0.0186    0.0179   -0.0226   -0.0193    0.0072    0.0096
          54    0.0261   -0.0592   -0.0090   -0.0209   -0.0456    0.0007   -0.0129   -0.0016
          55    0.0119   -0.0211    0.0223    0.0220   -0.0280   -0.0207    0.0070    0.0076
          56   -0.0192    0.0514   -0.0020    0.0062    0.0505    0.0215   -0.0062   -0.0153
          57   -0.0139    0.0360    0.0114    0.0189    0.0260   -0.0132    0.0184    0.0104
          58   -0.0083   -0.0073   -0.0102    0.0144    0.0040   -0.0014    0.0026   -0.0121
          59   -0.0105    0.0147    0.0016   -0.0055   -0.0211    0.0056    0.0148    0.0084
          60    0.0283    0.0051   -0.0049   -0.0018    0.0101   -0.0068    0.0017   -0.0121
          61   -0.0104   -0.0073   -0.0087    0.0136    0.0020    0.0012    0.0035   -0.0107
          62   -0.0181   -0.0014   -0.0012    0.0016   -0.0072    0.0035   -0.0115   -0.0009
          63    0.0203   -0.0063   -0.0076    0.0051    0.0124   -0.0061    0.0094    0.0212
          64   -0.0188   -0.0054   -0.0019    0.0047   -0.0014    0.0040   -0.0021    0.0035
          65   -0.0152   -0.0020   -0.0071    0.0083   -0.0067    0.0019   -0.0097   -0.0085
          66    0.0160    0.0085   -0.0194    0.0146   -0.0054   -0.0110   -0.0159    0.0046
          67   -0.0143   -0.0031   -0.0079    0.0085   -0.0021   -0.0012   -0.0099    0.0074
          68   -0.0116   -0.0047   -0.0132    0.0167   -0.0034    0.0018    0.0024   -0.0044
          69   -0.0171   -0.0055    0.0181   -0.0109   -0.0017    0.0184    0.0157   -0.0135
          70   -0.0086   -0.0049    0.0011    0.0017    0.0037    0.0073   -0.0000    0.0049
          71   -0.0052   -0.0048   -0.0118    0.0145    0.0016   -0.0002    0.0038    0.0023
          72    0.0030   -0.0036   -0.0065    0.0039    0.0082   -0.0153   -0.0120    0.0228
          73   -0.0007   -0.0082    0.0013    0.0028    0.0118    0.0021    0.0042    0.0055
          74   -0.0099   -0.0035   -0.0091    0.0110   -0.0013    0.0005   -0.0003    0.0069
          75    0.0219    0.0029   -0.0172    0.0152   -0.0041    0.0120    0.0020   -0.0230
          76    0.0014   -0.0032   -0.0049    0.0062    0.0084   -0.0040   -0.0001   -0.0009
          77   -0.0128   -0.0007    0.0013   -0.0031   -0.0007   -0.0017   -0.0114    0.0033
          78    0.0061   -0.0164    0.0118   -0.0048    0.0102    0.0202    0.0247    0.0072
          79   -0.0275   -0.0069    0.0084   -0.0061   -0.0007    0.0076   -0.0063    0.0107
          80   -0.0187    0.0004   -0.0038    0.0040   -0.0103    0.0039   -0.0179   -0.0077
          81    0.0278    0.0250   -0.0391    0.0300   -0.0240   -0.0158   -0.0435   -0.0199
          82   -0.0136   -0.0010   -0.0133    0.0108   -0.0044   -0.0091   -0.0220    0.0121
          83   -0.0107   -0.0057   -0.0108    0.0157   -0.0017    0.0051    0.0076   -0.0050
          84   -0.0498   -0.0109    0.0538   -0.0329   -0.0122    0.0618    0.0459   -0.0654
          85   -0.0105   -0.0055    0.0046   -0.0000    0.0011    0.0158    0.0072   -0.0031
          86    0.0059   -0.0065   -0.0113    0.0147    0.0085    0.0004    0.0088    0.0006
          87    0.0068   -0.0010   -0.0223    0.0126    0.0156   -0.0505   -0.0450    0.0554
          88   -0.0024   -0.0121    0.0011    0.0052    0.0156   -0.0022    0.0133    0.0135
          89   -0.0087   -0.0050   -0.0117    0.0146    0.0006   -0.0018    0.0046    0.0078
          90    0.0491    0.0186   -0.0487    0.0410   -0.0203    0.0238   -0.0126   -0.0751
          91    0.0082    0.0260    0.0032   -0.0084   -0.0231    0.0049    0.0004    0.0046
          92   -0.0051   -0.0124    0.0042   -0.0013    0.0115    0.0058    0.0069    0.0045
          93   -0.0047   -0.0100    0.0117   -0.0113    0.0103   -0.0020   -0.0006    0.0016
          94    0.0177   -0.0178    0.0005   -0.0070    0.0119    0.0079    0.0084    0.0243
          95    0.0121    0.0015    0.0127   -0.0058    0.0221    0.0176   -0.0225   -0.0125
          96    0.0008   -0.0065    0.0048   -0.0093    0.0129   -0.0111    0.0246    0.0099
          97    0.0043    0.0214    0.0042   -0.0090   -0.0209    0.0062    0.0021    0.0073
          98   -0.0011   -0.0025    0.0209   -0.0227    0.0124   -0.0174   -0.0091   -0.0083
          99    0.0109    0.0203    0.0116   -0.0161   -0.0125    0.0005   -0.0033    0.0020
         100   -0.0013    0.0173    0.0114   -0.0171   -0.0156   -0.0072   -0.0132   -0.0023
         101    0.0111   -0.0108   -0.0039    0.0120    0.0027    0.0409    0.0496    0.0198
         102   -0.0062   -0.0138    0.0149   -0.0136    0.0118   -0.0013   -0.0006    0.0003
         103    0.0159    0.0360   -0.0074    0.0027   -0.0377    0.0265    0.0211    0.0173
         104   -0.0071   -0.0066    0.0009    0.0005    0.0040    0.0079    0.0033    0.0068
         105   -0.0203   -0.0104    0.0179   -0.0214    0.0123   -0.0242   -0.0365   -0.0086
         106   -0.0055   -0.0049    0.0215   -0.0236    0.0127   -0.0172   -0.0089   -0.0064
         107    0.0035    0.0106    0.0131   -0.0163   -0.0041   -0.0066   -0.0041   -0.0018
         108   -0.0006   -0.0001    0.0036   -0.0042    0.0015   -0.0045   -0.0026   -0.0019
         109    0.0029    0.0205   -0.0007   -0.0040   -0.0228    0.0085    0.0049    0.0098
         110    0.0059    0.0147    0.0202   -0.0254   -0.0028   -0.0162   -0.0105   -0.0068
         111    0.0310    0.0634    0.0221   -0.0354   -0.0437   -0.0057   -0.0153   -0.0027
         112   -0.0094   -0.0173    0.0399   -0.0425    0.0357   -0.0444   -0.0245   -0.0236
         113   -0.0071   -0.0155    0.0185   -0.0179    0.0226   -0.0193   -0.0072   -0.0096
         114   -0.0261   -0.0591   -0.0089    0.0209    0.0456    0.0007    0.0129    0.0016
         115   -0.0119   -0.0211    0.0224   -0.0220    0.0280   -0.0207   -0.0070   -0.0076
         116    0.0192    0.0513   -0.0021   -0.0062   -0.0505    0.0216    0.0062    0.0153
         117    0.0139    0.0360    0.0114   -0.0189   -0.0260   -0.0133   -0.0184   -0.0104
         118    0.0024   -0.0122    0.0011   -0.0052   -0.0156   -0.0022   -0.0133   -0.0135
         119    0.0087   -0.0050   -0.0117   -0.0146   -0.0006   -0.0018   -0.0046   -0.0078
         120   -0.0491    0.0185   -0.0487   -0.0411    0.0203    0.0238    0.0126    0.0751


   Root No.      25        26        27        28        29        30        31        32

                12 Au     14 Ag     15 Ag     13 Au     14 Au     15 Au     16 Ag     16 Au  

                 463.0     479.2     535.2     535.3     563.1     578.3     589.6     624.1
  
           1    0.0121   -0.0108    0.0257    0.0244    0.0108    0.0046    0.0016   -0.0061
           2    0.0035   -0.0279   -0.0134   -0.0325    0.0285    0.0079    0.0144   -0.0065
           3    0.0079    0.0093   -0.0012    0.0052   -0.0113   -0.0134   -0.0010    0.0056
           4    0.0107   -0.0105    0.0222    0.0164    0.0137    0.0073    0.0016   -0.0042
           5   -0.0045    0.0139    0.0138    0.0241   -0.0026   -0.0010   -0.0011    0.0108
           6   -0.0183   -0.0041    0.0161    0.0058    0.0014    0.0159   -0.0165   -0.0045
           7   -0.0038    0.0031   -0.0107   -0.0035   -0.0199    0.0066   -0.0097   -0.0125
           8    0.0041    0.0056    0.0322    0.0409    0.0095    0.0013    0.0030    0.0115
           9   -0.0005   -0.0081   -0.0019   -0.0063    0.0052    0.0011    0.0037   -0.0025
          10   -0.0071    0.0044   -0.0106   -0.0031   -0.0204    0.0052   -0.0088   -0.0100
          11    0.0061   -0.0113    0.0046    0.0056   -0.0074    0.0128   -0.0079   -0.0172
          12    0.0079    0.0079   -0.0059    0.0006   -0.0101    0.0009   -0.0063   -0.0023
          13   -0.0057    0.0136   -0.0370   -0.0326   -0.0180   -0.0097   -0.0012    0.0133
          14    0.0008   -0.0071   -0.0143   -0.0170   -0.0077    0.0026   -0.0031   -0.0042
          15   -0.0175   -0.0040    0.0010   -0.0069    0.0053    0.0018    0.0019    0.0026
          16   -0.0032    0.0008   -0.0073   -0.0197    0.0218   -0.0054    0.0122    0.0201
          17   -0.0048   -0.0010   -0.0249   -0.0214   -0.0228    0.0014   -0.0080   -0.0061
          18    0.0219    0.0031   -0.0167   -0.0086   -0.0043   -0.0030   -0.0013    0.0032
          19    0.0031    0.0001   -0.0054   -0.0097    0.0113   -0.0110    0.0106    0.0119
          20   -0.0081    0.0219   -0.0045    0.0085   -0.0108   -0.0163    0.0023    0.0172
          21   -0.0105    0.0006    0.0128   -0.0004    0.0145    0.0201   -0.0085   -0.0018
          22   -0.0158    0.0219   -0.0142    0.0031   -0.0332    0.0022   -0.0154   -0.0015
          23    0.0010    0.0164    0.0240    0.0389    0.0041   -0.0054    0.0057    0.0213
          24    0.0268   -0.0151   -0.0156   -0.0182    0.0259   -0.0211    0.0384    0.0135
          25   -0.0125    0.0044    0.0205    0.0296   -0.0089    0.0107   -0.0079   -0.0086
          26    0.0073   -0.0107   -0.0119   -0.0127   -0.0121    0.0095   -0.0078   -0.0158
          27    0.0464    0.0261   -0.0195    0.0087   -0.0226   -0.0119   -0.0021    0.0055
          28   -0.0005    0.0163   -0.0378   -0.0297   -0.0241   -0.0067   -0.0073    0.0084
          29    0.0043   -0.0096   -0.0137   -0.0277    0.0185   -0.0046    0.0110    0.0165
          30   -0.0388   -0.0178    0.0119   -0.0097    0.0274   -0.0029    0.0229    0.0129
          31   -0.0064    0.0050    0.0048    0.0062   -0.0001   -0.0007    0.0010   -0.0026
          32   -0.0094    0.0174    0.0032    0.0056    0.0015   -0.0114    0.0040    0.0094
          33   -0.0033    0.0050    0.0041    0.0050    0.0026   -0.0052    0.0028    0.0026
          34   -0.0012   -0.0104   -0.0218    0.0010    0.0214    0.0111    0.0021    0.0105
          35    0.0004    0.0435    0.0067   -0.0290    0.0441    0.0208   -0.0104    0.0018
          36   -0.0068    0.0037    0.0143    0.0254   -0.0133   -0.0068   -0.0112   -0.0187
          37   -0.0107    0.0095    0.0102    0.0132   -0.0005   -0.0010   -0.0009   -0.0006
          38    0.0118   -0.0141   -0.0029   -0.0046   -0.0006    0.0001    0.0023   -0.0068
          39   -0.0039    0.0065    0.0042    0.0050    0.0053   -0.0178    0.0183   -0.0150
          40   -0.0262    0.0289    0.0167    0.0190    0.0055   -0.0208    0.0169   -0.0227
          41   -0.0137    0.0259    0.0036    0.0109   -0.0032   -0.0166    0.0045    0.0125
          42    0.0104   -0.0031   -0.0084    0.0036   -0.0147    0.0067   -0.0154    0.0385
          43    0.0039   -0.0090    0.0012    0.0050   -0.0108    0.0254   -0.0248    0.0207
          44   -0.0325    0.0352    0.0223    0.0129    0.0181   -0.0108    0.0102   -0.0199
          45   -0.0013   -0.0006    0.0048    0.0042   -0.0004    0.0129   -0.0126    0.0119
          46    0.0095   -0.0124    0.0007   -0.0001   -0.0003    0.0005    0.0013   -0.0056
          47    0.0023   -0.0042    0.0021    0.0023   -0.0010   -0.0001    0.0009   -0.0052
          48    0.0027   -0.0038   -0.0002    0.0003   -0.0022    0.0033   -0.0035    0.0014
          49   -0.0137    0.0111    0.0123    0.0153    0.0037   -0.0102    0.0100   -0.0124
          50    0.0102   -0.0153   -0.0006   -0.0008   -0.0040    0.0060   -0.0033   -0.0073
          51    0.0039   -0.0083    0.0031    0.0055   -0.0107    0.0192   -0.0174    0.0037
          52    0.0354   -0.0449   -0.0119   -0.0163   -0.0124    0.0324   -0.0273    0.0083
          53    0.0135   -0.0163   -0.0048   -0.0073    0.0038   -0.0084    0.0132   -0.0174
          54   -0.0039    0.0099   -0.0018   -0.0047    0.0327   -0.0712    0.0793   -0.0581
          55    0.0103   -0.0109   -0.0010   -0.0022    0.0095   -0.0261    0.0301   -0.0288
          56   -0.0230    0.0239    0.0169    0.0222   -0.0048    0.0055   -0.0113    0.0106
          57    0.0188   -0.0321   -0.0049   -0.0051   -0.0401    0.1063   -0.1105    0.0810
          58    0.0121    0.0108   -0.0272    0.0225    0.0108    0.0046   -0.0016   -0.0061
          59    0.0035    0.0279    0.0154   -0.0316    0.0285    0.0079   -0.0144   -0.0065
          60    0.0079   -0.0093    0.0009    0.0053   -0.0113   -0.0133    0.0010    0.0056
          61    0.0107    0.0105   -0.0232    0.0149    0.0136    0.0073   -0.0016   -0.0042
          62   -0.0045   -0.0139   -0.0153    0.0232   -0.0026   -0.0010    0.0011    0.0108
          63   -0.0183    0.0041   -0.0165    0.0047    0.0014    0.0159    0.0165   -0.0045
          64   -0.0038   -0.0031    0.0109   -0.0028   -0.0200    0.0066    0.0097   -0.0125
          65    0.0041   -0.0056   -0.0347    0.0386    0.0095    0.0013   -0.0030    0.0115
          66   -0.0005    0.0081    0.0023   -0.0061    0.0052    0.0011   -0.0037   -0.0025
          67   -0.0072   -0.0044    0.0108   -0.0024   -0.0204    0.0053    0.0088   -0.0100
          68    0.0061    0.0113   -0.0050    0.0053   -0.0074    0.0128    0.0079   -0.0172
          69    0.0079   -0.0079    0.0058    0.0010   -0.0102    0.0009    0.0063   -0.0023
          70   -0.0057   -0.0136    0.0390   -0.0300   -0.0180   -0.0096    0.0012    0.0133
          71    0.0008    0.0071    0.0154   -0.0159   -0.0077    0.0026    0.0031   -0.0043
          72   -0.0176    0.0040   -0.0005   -0.0070    0.0051    0.0018   -0.0019    0.0026
          73   -0.0032   -0.0008    0.0085   -0.0192    0.0218   -0.0054   -0.0122    0.0201
          74   -0.0048    0.0010    0.0262   -0.0196   -0.0228    0.0014    0.0080   -0.0061
          75    0.0218   -0.0031    0.0172   -0.0075   -0.0044   -0.0030    0.0013    0.0032
          76    0.0030   -0.0001    0.0060   -0.0094    0.0113   -0.0110   -0.0106    0.0119
          77   -0.0081   -0.0219    0.0039    0.0088   -0.0108   -0.0163   -0.0023    0.0172
          78   -0.0105   -0.0006   -0.0127   -0.0013    0.0145    0.0201    0.0085   -0.0018
          79   -0.0158   -0.0219    0.0140    0.0040   -0.0332    0.0022    0.0154   -0.0015
          80    0.0010   -0.0164   -0.0264    0.0372    0.0042   -0.0054   -0.0057    0.0213
          81    0.0269    0.0151    0.0167   -0.0171    0.0259   -0.0211   -0.0384    0.0135
          82   -0.0125   -0.0044   -0.0224    0.0281   -0.0089    0.0107    0.0079   -0.0085
          83    0.0073    0.0107    0.0127   -0.0118   -0.0121    0.0095    0.0078   -0.0158
          84    0.0464   -0.0261    0.0189    0.0101   -0.0227   -0.0119    0.0021    0.0055
          85   -0.0005   -0.0163    0.0396   -0.0271   -0.0241   -0.0067    0.0073    0.0084
          86    0.0043    0.0096    0.0154   -0.0267    0.0185   -0.0046   -0.0110    0.0165
          87   -0.0389    0.0178   -0.0112   -0.0105    0.0273   -0.0029   -0.0229    0.0129
          88   -0.0082    0.0133   -0.0045   -0.0180    0.0295    0.0054   -0.0094    0.0077
          89   -0.0036    0.0101    0.0194   -0.0193   -0.0163    0.0061    0.0076   -0.0119
          90    0.0751   -0.0049    0.0566   -0.0201   -0.0119   -0.0234   -0.0120    0.0151
          91   -0.0064   -0.0050   -0.0052    0.0058   -0.0002   -0.0007   -0.0010   -0.0027
          92   -0.0093   -0.0174   -0.0035    0.0054    0.0015   -0.0114   -0.0040    0.0094
          93   -0.0033   -0.0050   -0.0044    0.0046    0.0025   -0.0052   -0.0028    0.0026
          94   -0.0012    0.0104    0.0217    0.0025    0.0214    0.0111   -0.0021    0.0105
          95    0.0004   -0.0435   -0.0049   -0.0294    0.0441    0.0208    0.0104    0.0018
          96   -0.0069   -0.0037   -0.0159    0.0243   -0.0134   -0.0068    0.0112   -0.0187
          97   -0.0107   -0.0095   -0.0111    0.0125   -0.0006   -0.0010    0.0009   -0.0007
          98    0.0118    0.0141    0.0032   -0.0043   -0.0006    0.0001   -0.0023   -0.0068
          99   -0.0039   -0.0065   -0.0045    0.0047    0.0053   -0.0178   -0.0183   -0.0150
         100    0.0039    0.0090   -0.0015    0.0048   -0.0109    0.0254    0.0248    0.0206
         101   -0.0325   -0.0352   -0.0230    0.0114    0.0181   -0.0108   -0.0102   -0.0200
         102   -0.0014    0.0006   -0.0051    0.0038   -0.0004    0.0129    0.0126    0.0119
         103   -0.0262   -0.0289   -0.0179    0.0179    0.0054   -0.0208   -0.0169   -0.0228
         104   -0.0137   -0.0259   -0.0042    0.0107   -0.0032   -0.0166   -0.0045    0.0125
         105    0.0103    0.0031    0.0081    0.0041   -0.0148    0.0067    0.0154    0.0385
         106    0.0095    0.0124   -0.0007   -0.0002   -0.0003    0.0005   -0.0013   -0.0057
         107    0.0023    0.0042   -0.0023    0.0022   -0.0010   -0.0001   -0.0009   -0.0052
         108    0.0027    0.0038    0.0002    0.0003   -0.0022    0.0033    0.0035    0.0014
         109   -0.0137   -0.0111   -0.0132    0.0144    0.0036   -0.0102   -0.0100   -0.0124
         110    0.0102    0.0153    0.0007   -0.0007   -0.0040    0.0060    0.0033   -0.0073
         111    0.0039    0.0083   -0.0035    0.0053   -0.0106    0.0192    0.0174    0.0037
         112    0.0354    0.0449    0.0129   -0.0154   -0.0125    0.0324    0.0273    0.0083
         113    0.0135    0.0163    0.0052   -0.0069    0.0038   -0.0083   -0.0132   -0.0174
[...]
 TRANSITION DIPOLE   2.0092         C 31 -- H 35         +10.1% ( 36.1%)      0.1%
 TRAVEL (Ang.)       0.6557         C 11 -- H 15          +7.9% ( 31.8%)      0.2%
 REDUCED MASS        0.1158         C 31 -- H 34          +7.9% ( 31.8%)      0.2%
 EFFECTIVE MASS      3.0933
 FORCE CONSTANT      0.1252

 VIBRATION         81   41Ag          ATOM PAIR      ENERGY CONTRIBUTION    RADIAL
 FREQUENCY          1391.02         C 36 -- H 39         +18.7% ( 42.6%)      0.3%
 TRANSITION DIPOLE   0.0000         C 16 -- H 19         +18.7% ( 42.6%)      0.5%
 TRAVEL (Ang.)       0.4893         C 36 -- H 38         +17.4% ( 41.1%)      1.9%
 REDUCED MASS        0.2025         C 16 -- H 18         +17.4% ( 41.1%)      1.4%
 EFFECTIVE MASS      2.0962
 FORCE CONSTANT      0.2308

 VIBRATION         82   41Au          ATOM PAIR      ENERGY CONTRIBUTION    RADIAL
 FREQUENCY          1391.25         C 16 -- H 19         +18.6% ( 42.5%)      0.5%
 TRANSITION DIPOLE   0.3351         C 36 -- H 39         +18.6% ( 42.5%)      0.3%
 TRAVEL (Ang.)       0.4925         C 16 -- H 18         +17.2% ( 40.9%)      1.4%
 REDUCED MASS        0.1998         C 36 -- H 38         +17.2% ( 40.9%)      1.9%
 EFFECTIVE MASS      2.1043
 FORCE CONSTANT      0.2279

 VIBRATION         83   42Au          ATOM PAIR      ENERGY CONTRIBUTION    RADIAL
 FREQUENCY          1419.91         C 25 -- C 26          +6.7% ( 33.4%)     78.2%
 TRANSITION DIPOLE   0.9179         C  6 -- C  7          +6.7% ( 33.4%)     77.6%
 TRAVEL (Ang.)       0.3551         C  4 -- H  9          +5.2% ( 29.6%)      2.1%
 REDUCED MASS        0.3766         C 23 -- H 28          +5.2% ( 29.6%)      1.9%
 EFFECTIVE MASS      6.8408
 FORCE CONSTANT      0.4473

 VIBRATION         84   42Ag          ATOM PAIR      ENERGY CONTRIBUTION    RADIAL
 FREQUENCY          1424.47         C  6 -- C  7          +7.2% ( 35.5%)     74.6%
 TRANSITION DIPOLE   0.0000         C 25 -- C 26          +7.2% ( 35.5%)     75.2%
 TRAVEL (Ang.)       0.3224         C  7 -- C 11          +5.2% ( 30.0%)      2.0%
 REDUCED MASS        0.4553         C 26 -- C 31          +5.2% ( 30.0%)      2.1%
 EFFECTIVE MASS      6.6852
 FORCE CONSTANT      0.5443

 VIBRATION         85   43Ag          ATOM PAIR      ENERGY CONTRIBUTION    RADIAL
 FREQUENCY          1453.30         C 21 -- C 26          +8.4% ( 38.8%)     56.1%
 TRANSITION DIPOLE   0.0000         C  2 -- C  7          +8.4% ( 38.8%)     55.6%
 TRAVEL (Ang.)       0.2754         C 21 -- C 22          +6.5% ( 34.0%)     92.3%
 REDUCED MASS        0.6119         C  2 -- C  3          +6.5% ( 34.0%)     92.9%
 EFFECTIVE MASS      7.4560
 FORCE CONSTANT      0.7614

 VIBRATION         86   43Au          ATOM PAIR      ENERGY CONTRIBUTION    RADIAL
 FREQUENCY          1470.61         C 21 -- C 26          +9.5% ( 40.4%)     85.1%
 TRANSITION DIPOLE   3.2552         C  2 -- C  7          +9.5% ( 40.4%)     84.7%
 TRAVEL (Ang.)       0.2679         C  2 -- C  3          +6.2% ( 32.6%)     75.9%
 REDUCED MASS        0.6389         C 21 -- C 22          +6.2% ( 32.6%)     75.2%
 EFFECTIVE MASS      7.3668
 FORCE CONSTANT      0.8141

 VIBRATION         87   44Au          ATOM PAIR      ENERGY CONTRIBUTION    RADIAL
 FREQUENCY          1484.35         C 25 -- C 26          +7.3% ( 39.0%)     99.3%
 TRANSITION DIPOLE   1.3782         C  6 -- C  7          +7.2% ( 38.9%)     99.2%
 TRAVEL (Ang.)       0.2497         C 23 -- C 24          +5.7% ( 34.6%)     99.3%
 REDUCED MASS        0.7286         C  4 -- C  5          +5.7% ( 34.6%)     99.1%
 EFFECTIVE MASS      9.7884
 FORCE CONSTANT      0.9458

 VIBRATION         88   44Ag          ATOM PAIR      ENERGY CONTRIBUTION    RADIAL
 FREQUENCY          1484.95         C  6 -- C  7          +7.2% ( 39.0%)     98.0%
 TRANSITION DIPOLE   0.0004         C 25 -- C 26          +7.2% ( 39.0%)     98.2%
 TRAVEL (Ang.)       0.2505         C  4 -- C  5          +5.1% ( 32.8%)     99.5%
 REDUCED MASS        0.7234         C 23 -- C 24          +5.1% ( 32.8%)     99.6%
 EFFECTIVE MASS      9.9958
 FORCE CONSTANT      0.9399

 VIBRATION         89   45Au          ATOM PAIR      ENERGY CONTRIBUTION    RADIAL
 FREQUENCY          1659.25         C 24 -- C 25          +9.1% ( 44.8%)     97.9%
 TRANSITION DIPOLE   6.0399         C  5 -- C  6          +9.1% ( 44.8%)     98.1%
 TRAVEL (Ang.)       0.2013         C 22 -- C 23          +5.8% ( 35.8%)     95.7%
 REDUCED MASS        1.0031         C  3 -- C  4          +5.8% ( 35.8%)     95.4%
 EFFECTIVE MASS     11.9130
 FORCE CONSTANT      1.6271

 VIBRATION         90   45Ag          ATOM PAIR      ENERGY CONTRIBUTION    RADIAL
 FREQUENCY          1668.33         C  3 -- C  4          +9.5% ( 45.1%)     92.2%
 TRANSITION DIPOLE   0.0003         C 22 -- C 23          +9.5% ( 45.1%)     92.6%
 TRAVEL (Ang.)       0.1911         C  5 -- C  6          +8.9% ( 43.8%)     97.0%
 REDUCED MASS        1.1070         C 24 -- C 25          +8.9% ( 43.8%)     96.7%
 EFFECTIVE MASS     12.0376
 FORCE CONSTANT      1.8154

 VIBRATION         91   46Au          ATOM PAIR      ENERGY CONTRIBUTION    RADIAL
 FREQUENCY          1693.70         O  1 -- C  2         +12.7% ( 48.2%)     98.5%
 TRANSITION DIPOLE   2.5491         O 20 -- C 21         +12.7% ( 48.2%)     98.4%
 TRAVEL (Ang.)       0.1660         C 22 -- C 23          +8.4% ( 39.1%)     95.4%
 REDUCED MASS        1.4447         C  3 -- C  4          +8.4% ( 39.1%)     95.1%
 EFFECTIVE MASS     11.2086
 FORCE CONSTANT      2.4417

 VIBRATION         92   46Ag          ATOM PAIR      ENERGY CONTRIBUTION    RADIAL
 FREQUENCY          1752.72         O  1 -- C  2         +16.5% ( 51.8%)     98.3%
 TRANSITION DIPOLE   0.0000         O 20 -- C 21         +16.5% ( 51.8%)     98.4%
 TRAVEL (Ang.)       0.1427         C  2 -- C  3         +11.0% ( 42.2%)     16.8%
 REDUCED MASS        1.8883         C 21 -- C 22         +11.0% ( 42.2%)     17.3%
 EFFECTIVE MASS      9.1830         C  2 -- C  7         +10.8% ( 41.9%)     56.2%
 FORCE CONSTANT      3.4178         C 21 -- C 26         +10.8% ( 41.9%)     55.8%

 VIBRATION         93   47Ag          ATOM PAIR      ENERGY CONTRIBUTION    RADIAL
 FREQUENCY          1770.15         C 24 -- C 25         +10.8% ( 46.9%)     98.8%
 TRANSITION DIPOLE   0.0001         C  5 -- C  6         +10.8% ( 46.9%)     98.6%
 TRAVEL (Ang.)       0.1661         C 22 -- C 23         +10.8% ( 46.9%)     99.4%
 REDUCED MASS        1.3808         C  3 -- C  4         +10.8% ( 46.9%)     99.5%
 EFFECTIVE MASS     11.7728
 FORCE CONSTANT      2.5491

 VIBRATION         94   47Au          ATOM PAIR      ENERGY CONTRIBUTION    RADIAL
 FREQUENCY          1785.52         C  5 -- C  6         +10.7% ( 45.2%)     98.4%
 TRANSITION DIPOLE   2.8586         C 24 -- C 25         +10.7% ( 45.2%)     98.6%
 TRAVEL (Ang.)       0.1822         C  3 -- C  4          +9.4% ( 42.4%)     98.8%
 REDUCED MASS        1.1373         C 22 -- C 23          +9.4% ( 42.4%)     98.6%
 EFFECTIVE MASS     11.0333
 FORCE CONSTANT      2.1363

 VIBRATION         95   48Ag          ATOM PAIR      ENERGY CONTRIBUTION    RADIAL
 FREQUENCY          1844.52         C 33 -- C 36         +23.5% ( 71.0%)     99.8%
 TRANSITION DIPOLE   0.0092         C 13 -- C 16         +22.8% ( 69.8%)     99.7%
 TRAVEL (Ang.)       0.1141         C 31 -- C 33          +8.1% ( 41.5%)     40.5%
 REDUCED MASS        2.8075         C 11 -- C 13          +7.8% ( 40.9%)     42.0%
 EFFECTIVE MASS     11.8350
 FORCE CONSTANT      5.6277

 VIBRATION         96   48Au          ATOM PAIR      ENERGY CONTRIBUTION    RADIAL
 FREQUENCY          1844.63         C 13 -- C 16         +23.5% ( 71.0%)     99.7%
 TRANSITION DIPOLE   1.1466         C 33 -- C 36         +22.8% ( 69.8%)     99.8%
 TRAVEL (Ang.)       0.1141         C 11 -- C 13          +8.0% ( 41.5%)     42.0%
 REDUCED MASS        2.8065         C 31 -- C 33          +7.8% ( 40.9%)     40.5%
 EFFECTIVE MASS     11.8338
 FORCE CONSTANT      5.6265

 VIBRATION         97   49Ag          ATOM PAIR      ENERGY CONTRIBUTION    RADIAL
 FREQUENCY          2643.89         C 31 -- H 34         +27.5% ( 54.1%)     97.8%
 TRANSITION DIPOLE   0.0001         C 11 -- H 15         +27.5% ( 54.1%)     98.7%
 TRAVEL (Ang.)       0.3205         C 31 -- H 35         +21.3% ( 47.6%)     98.5%
 REDUCED MASS        0.2483         C 11 -- H 14         +21.3% ( 47.6%)     97.6%
 EFFECTIVE MASS      1.4176
 FORCE CONSTANT      1.0224

 VIBRATION         98   49Au          ATOM PAIR      ENERGY CONTRIBUTION    RADIAL
 FREQUENCY          2644.24         C 11 -- H 15         +27.5% ( 54.1%)     98.7%
 TRANSITION DIPOLE   0.7821         C 31 -- H 34         +27.5% ( 54.1%)     97.8%
 TRAVEL (Ang.)       0.3208         C 11 -- H 14         +21.3% ( 47.6%)     97.6%
 REDUCED MASS        0.2477         C 31 -- H 35         +21.3% ( 47.6%)     98.5%
 EFFECTIVE MASS      1.4175
 FORCE CONSTANT      1.0205

 VIBRATION         99   50Au          ATOM PAIR      ENERGY CONTRIBUTION    RADIAL
 FREQUENCY          2711.02         C 36 -- H 38         +18.8% ( 44.6%)     98.5%
 TRANSITION DIPOLE   0.5192         C 16 -- H 18         +18.5% ( 44.2%)     98.8%
 TRAVEL (Ang.)       0.4027         C 36 -- H 39         +16.3% ( 41.5%)     98.7%
 REDUCED MASS        0.1534         C 16 -- H 19         +16.1% ( 41.1%)     98.3%
 EFFECTIVE MASS      1.4219         C 33 -- H 37         +12.3% ( 35.9%)     99.8%
 FORCE CONSTANT      0.6643         C 13 -- H 17         +12.1% ( 35.6%)     99.6%

 VIBRATION        100   50Ag          ATOM PAIR      ENERGY CONTRIBUTION    RADIAL
 FREQUENCY          2711.05         C 16 -- H 18         +18.8% ( 44.6%)     98.8%
 TRANSITION DIPOLE   0.0022         C 36 -- H 38         +18.5% ( 44.2%)     98.4%
 TRAVEL (Ang.)       0.4016         C 16 -- H 19         +16.6% ( 41.8%)     98.4%
 REDUCED MASS        0.1542         C 36 -- H 39         +16.3% ( 41.4%)     98.7%
 EFFECTIVE MASS      1.4227         C 13 -- H 17         +12.1% ( 35.8%)     99.6%
 FORCE CONSTANT      0.6679         C 33 -- H 37         +11.9% ( 35.5%)     99.8%

 VIBRATION        101   51Ag          ATOM PAIR      ENERGY CONTRIBUTION    RADIAL
 FREQUENCY          2720.27         C 31 -- H 35         +28.2% ( 52.6%)     96.2%
 TRANSITION DIPOLE   0.0444         C 31 -- H 34         +22.6% ( 47.2%)     97.1%
 TRAVEL (Ang.)       0.3624         C 11 -- H 14         +17.9% ( 41.9%)     97.3%
 REDUCED MASS        0.1887         C 11 -- H 15         +14.4% ( 37.6%)     95.8%
 EFFECTIVE MASS      1.2656
 FORCE CONSTANT      0.8228

 VIBRATION        102   51Au          ATOM PAIR      ENERGY CONTRIBUTION    RADIAL
 FREQUENCY          2720.28         C 11 -- H 14         +27.9% ( 52.4%)     97.3%
 TRANSITION DIPOLE   0.3920         C 11 -- H 15         +22.6% ( 47.1%)     95.8%
 TRAVEL (Ang.)       0.3646         C 31 -- H 35         +17.7% ( 41.7%)     96.2%
 REDUCED MASS        0.1865         C 31 -- H 34         +14.3% ( 37.5%)     97.1%
 EFFECTIVE MASS      1.2666
 FORCE CONSTANT      0.8132

 VIBRATION        103   52Ag          ATOM PAIR      ENERGY CONTRIBUTION    RADIAL
 FREQUENCY          2734.63         C  6 -- H 40         +46.7% ( 69.1%)    100.0%
 TRANSITION DIPOLE   0.0006         C 25 -- H 30         +46.6% ( 69.0%)    100.0%
 TRAVEL (Ang.)       0.2411         C  5 -- H 10          +1.4% ( 11.9%)     99.5%
 REDUCED MASS        0.4243         C 24 -- H 29          +1.4% ( 11.9%)     99.4%
 EFFECTIVE MASS      1.3868
 FORCE CONSTANT      1.8695

 VIBRATION        104   52Au          ATOM PAIR      ENERGY CONTRIBUTION    RADIAL
 FREQUENCY          2734.99         C 25 -- H 30         +45.8% ( 68.4%)    100.0%
 TRANSITION DIPOLE   0.8375         C  6 -- H 40         +45.7% ( 68.3%)    100.0%
 TRAVEL (Ang.)       0.2457         C 24 -- H 29          +1.3% ( 11.6%)     99.3%
 REDUCED MASS        0.4082         C  5 -- H 10          +1.3% ( 11.6%)     99.5%
 EFFECTIVE MASS      1.3893
 FORCE CONSTANT      1.7992

 VIBRATION        105   53Ag          ATOM PAIR      ENERGY CONTRIBUTION    RADIAL
 FREQUENCY          2745.04         C 33 -- H 37         +32.7% ( 57.6%)    100.0%
 TRANSITION DIPOLE   0.0004         C 13 -- H 17         +32.7% ( 57.6%)    100.0%
 TRAVEL (Ang.)       0.3335         C 36 -- H 39          +5.5% ( 23.5%)     99.2%
 REDUCED MASS        0.2209         C 16 -- H 19          +5.5% ( 23.5%)     98.9%
 EFFECTIVE MASS      1.4358
 FORCE CONSTANT      0.9805

 VIBRATION        106   53Au          ATOM PAIR      ENERGY CONTRIBUTION    RADIAL
 FREQUENCY          2745.39         C 23 -- H 28         +41.2% ( 64.9%)    100.0%
 TRANSITION DIPOLE   0.9182         C  4 -- H  9         +41.1% ( 64.8%)    100.0%
 TRAVEL (Ang.)       0.2719         C 22 -- H 27          +3.0% ( 17.5%)     99.7%
 REDUCED MASS        0.3322         C  3 -- H  8          +3.0% ( 17.5%)     99.8%
 EFFECTIVE MASS      1.3762
 FORCE CONSTANT      1.4754

 VIBRATION        107   54Ag          ATOM PAIR      ENERGY CONTRIBUTION    RADIAL
 FREQUENCY          2745.70         C  4 -- H  9         +41.7% ( 65.2%)    100.0%
 TRANSITION DIPOLE   0.0003         C 23 -- H 28         +41.6% ( 65.2%)    100.0%
 TRAVEL (Ang.)       0.2689         C  3 -- H  8          +2.8% ( 17.0%)     99.7%
 REDUCED MASS        0.3397         C 22 -- H 27          +2.8% ( 16.9%)     99.6%
 EFFECTIVE MASS      1.3759
 FORCE CONSTANT      1.5087

 VIBRATION        108   54Au          ATOM PAIR      ENERGY CONTRIBUTION    RADIAL
 FREQUENCY          2746.38         C 13 -- H 17         +30.8% ( 55.9%)    100.0%
 TRANSITION DIPOLE   1.0049         C 33 -- H 37         +30.8% ( 55.8%)    100.0%
 TRAVEL (Ang.)       0.3521         C 16 -- H 19          +5.5% ( 23.7%)     99.0%
 REDUCED MASS        0.1981         C 36 -- H 39          +5.5% ( 23.7%)     99.3%
 EFFECTIVE MASS      1.4342
 FORCE CONSTANT      0.8802

 VIBRATION        109   55Ag          ATOM PAIR      ENERGY CONTRIBUTION    RADIAL
 FREQUENCY          2766.10         C 22 -- H 27         +38.8% ( 62.9%)    100.0%
 TRANSITION DIPOLE   0.0002         C  3 -- H  8         +38.8% ( 62.9%)    100.0%
 TRAVEL (Ang.)       0.2814         C 24 -- H 29          +8.7% ( 29.8%)     99.9%
 REDUCED MASS        0.3077         C  5 -- H 10          +8.7% ( 29.8%)    100.0%
 EFFECTIVE MASS      1.3759
 FORCE CONSTANT      1.3873

 VIBRATION        110   55Au          ATOM PAIR      ENERGY CONTRIBUTION    RADIAL
 FREQUENCY          2766.67         C  3 -- H  8         +40.2% ( 64.0%)    100.0%
 TRANSITION DIPOLE   1.5235         C 22 -- H 27         +40.2% ( 64.0%)    100.0%
 TRAVEL (Ang.)       0.2743         C  5 -- H 10          +7.1% ( 26.9%)    100.0%
 REDUCED MASS        0.3240         C 24 -- H 29          +7.1% ( 26.9%)     99.9%
 EFFECTIVE MASS      1.3791
 FORCE CONSTANT      1.4612

 VIBRATION        111   56Au          ATOM PAIR      ENERGY CONTRIBUTION    RADIAL
 FREQUENCY          2773.23         C 24 -- H 29         +39.0% ( 63.1%)    100.0%
 TRANSITION DIPOLE   1.3641         C  5 -- H 10         +39.0% ( 63.1%)    100.0%
 TRAVEL (Ang.)       0.2824         C 22 -- H 27          +5.6% ( 23.8%)    100.0%
 REDUCED MASS        0.3049         C  3 -- H  8          +5.6% ( 23.8%)    100.0%
 EFFECTIVE MASS      1.4264
 FORCE CONSTANT      1.3816

 VIBRATION        112   56Ag          ATOM PAIR      ENERGY CONTRIBUTION    RADIAL
 FREQUENCY          2774.28         C  5 -- H 10         +37.0% ( 61.4%)    100.0%
 TRANSITION DIPOLE   0.0002         C 24 -- H 29         +37.0% ( 61.4%)    100.0%
 TRAVEL (Ang.)       0.2965         C  3 -- H  8          +6.3% ( 25.3%)    100.0%
 REDUCED MASS        0.2765         C 22 -- H 27          +6.3% ( 25.3%)    100.0%
 EFFECTIVE MASS      1.4267
 FORCE CONSTANT      1.2540

 VIBRATION        113   57Au          ATOM PAIR      ENERGY CONTRIBUTION    RADIAL
 FREQUENCY          2786.05         C 36 -- H 39         +25.1% ( 49.7%)     94.3%
 TRANSITION DIPOLE   1.1641         C 16 -- H 19         +24.8% ( 49.3%)     95.0%
 TRAVEL (Ang.)       0.3184         C 36 -- H 38         +24.2% ( 48.7%)     95.4%
 REDUCED MASS        0.2387         C 16 -- H 18         +23.9% ( 48.4%)     94.7%
 EFFECTIVE MASS      1.3243
 FORCE CONSTANT      1.0917

 VIBRATION        114   57Ag          ATOM PAIR      ENERGY CONTRIBUTION    RADIAL
 FREQUENCY          2786.13         C 16 -- H 19         +24.9% ( 49.4%)     95.1%
 TRANSITION DIPOLE   0.0040         C 36 -- H 39         +24.5% ( 49.1%)     94.3%
 TRAVEL (Ang.)       0.3238         C 16 -- H 18         +23.6% ( 48.2%)     94.6%
 REDUCED MASS        0.2308         C 36 -- H 38         +23.3% ( 47.8%)     95.4%
 EFFECTIVE MASS      1.3277
 FORCE CONSTANT      1.0556

           FORCE CONSTANT IN CARTESIAN COORDINATES (Millidynes/A)

    ATOM   CHEMICAL       X               Y               Z
   NUMBER   SYMBOL  FORCE CONSTANT  FORCE CONSTANT  FORCE CONSTANT

      1       O        9.534844        2.240023        0.893646
      2       C       12.930222        9.625427        3.038524
      3       C       12.762319        8.433974        2.578959
      4       C       12.526652        8.933603        2.862374
      5       C        9.156024       12.158917        2.670704
      6       C        9.328164       11.801461        2.911255
      7       C        9.250891        8.054496        3.709231
      8       H        1.938749        3.133962        0.484095
      9       H        1.657566        3.464981        0.416122
     10       H        4.065081        0.962287        0.572691
     11       C        7.567062        6.725440        6.267399
     12       H        0.715172        0.526335        0.226974
     13       C        8.928417       13.075146        3.023104
     14       H        1.391212        3.187402        1.068659
     15       H        1.598292        0.777530        3.155281
     16       C        7.771176       12.743645        2.668655
     17       H        1.656353        3.150861        0.777322
     18       H        1.381217        3.315965        0.678000
     19       H        3.878069        0.885852        0.598162
     20       O        9.534844        2.240023        0.893646
     21       C       12.930222        9.625427        3.038524
     22       C       12.762319        8.433974        2.578959
     23       C       12.526652        8.933603        2.862374
     24       C        9.156024       12.158917        2.670704
     25       C        9.328164       11.801461        2.911255
     26       C        9.250891        8.054496        3.709231
     27       H        1.938749        3.133962        0.484095
     28       H        1.657566        3.464981        0.416122
     29       H        4.065081        0.962287        0.572691
     30       H        1.893327        3.206448        0.415103
     31       C        7.567062        6.725440        6.267399
     32       H        0.715172        0.526335        0.226974
     33       C        8.928417       13.075146        3.023104
     34       H        1.598292        0.777530        3.155281
     35       H        1.391213        3.187402        1.068659
     36       C        7.771176       12.743645        2.668655
     37       H        1.656353        3.150861        0.777322
     38       H        1.381217        3.315965        0.678000
     39       H        3.878069        0.885852        0.598162
     40       H        1.893327        3.206448        0.415103

 **********************
 *                    *
 * JOB ENDED NORMALLY *
 *                    *
 **********************



 TOTAL JOB TIME:             6.03 SECONDS

 == MOPAC DONE ==
