 *******************************************************************************
 ** Cite this program as: MOPAC2016, Version: 22.066W, James J. P. Stewart,   **
 **                           web-site: HTTP://OpenMOPAC.net.                 **
 *******************************************************************************
 **                                                                           **
 **                                MOPAC2016                                  **
 **                                                                           **
 *******************************************************************************

                              PM7 CALCULATION RESULTS

 *******************************************************************************
 *  CALCULATION DONE:                                Mon May  9 22:12:53 2022  *
 *  PM7        - The PM7 Hamiltonian to be used
 *  GEO_DAT    - DATA SET GEOMETRY IS IN FILE "E2_TS.arc"
 *
 *
 *
 *                 CHARGE ON SYSTEM = 0
 *
 *
 *
 *  IRC=N      - INTRINSIC REACTION COORDINATE  1 DEFINED
 *  LET        - OVERRIDE SOME SAFETY CHECKS
 *  T=         - A TIME OF 172800.0 SECONDS REQUESTED
 *  DUMP=N     - RESTART FILE WRITTEN EVERY 7200.0 SECONDS REQUESTED
 *  CYCLES=    - DO A MAXIMUM OF 10000 STEPS
 *  LARGE      - EXPANDED OUTPUT TO BE PRINTED
 *******************************************************************************
PM7 CHARGE=0 IRC=1 LARGE=100 LET CYCLES=10000 GEO_DAT="E2_TS.arc"
 (irc)

   ATOM   CHEMICAL          X               Y               Z
  NUMBER   SYMBOL      (ANGSTROMS)     (ANGSTROMS)     (ANGSTROMS)
 
     1       O         -0.16761190  *  -0.37368381  *   0.42577632  *
     2       C          1.09016965  *  -0.27692611  *   0.29445984  *
     3       C          1.67162778  *   1.03785715  *   0.41436491  *
     4       C          3.02031682  *   1.17030885  *   0.52935319  *
     5       C          3.88127012  *   0.02988046  *   0.49044997  *
     6       C          3.36658351  *  -1.20440415  *   0.23671102  *
     7       C          1.94400253  *  -1.43155895  *   0.10903690  *
     8       H          0.99056819  *   1.88409466  *   0.43402703  *
     9       H          3.47810662  *   2.15438845  *   0.65112868  *
    10       H          4.94660676  *   0.18024786  *   0.63464908  *
    11       C          1.59057824  *  -2.44037245  *  -0.97495032  *
    12       H          1.67205365  *  -2.19214042  *   1.27587038  *
    13       C          0.13004551  *  -2.70026039  *  -1.16932808  *
    14       H          2.13267113  *  -3.39360707  *  -0.77596491  *
    15       H          1.99936725  *  -2.06369235  *  -1.94515790  *
    16       C         -0.37192720  *  -3.93317138  *  -1.24212940  *
    17       H         -0.49514565  *  -1.81445935  *  -1.29961093  *
    18       H          0.21700841  *  -4.83072347  *  -1.12568687  *
    19       H         -1.41648112  *  -4.14049935  *  -1.41609266  *
    20       O          1.24138578  *  -3.25013691  *   1.88304227  *
    21       C         -0.01756872  *  -3.34057668  *   2.00352346  *
    22       C         -0.60957918  *  -4.64876862  *   1.85955340  *
    23       C         -1.95894774  *  -4.77077019  *   1.73710354  *
    24       C         -2.81049287  *  -3.62527121  *   1.78845830  *
    25       C         -2.28560390  *  -2.39852475  *   2.06283467  *
    26       C         -0.86467150  *  -2.18457218  *   2.19578044  *
    27       H          0.06519270  *  -5.49928045  *   1.83163793  *
    28       H         -2.42292684  *  -5.74978385  *   1.60065448  *
    29       H         -3.87640732  *  -3.76389800  *   1.63834625  *
    30       H         -2.93356575  *  -1.52755020  *   2.18776706  *
    31       C         -0.50028038  *  -1.15498433  *   3.25313799  *
    32       H         -0.59093948  *  -1.42935237  *   1.00075483  *
    33       C          0.96277007  *  -0.91808608  *   3.45729785  *
    34       H         -0.92460855  *  -1.49611902  *   4.23051549  *
    35       H         -1.02233463  *  -0.19689136  *   3.02413157  *
    36       C          1.48275480  *   0.30672737  *   3.54132408  *
    37       H          1.57404748  *  -1.81431040  *   3.58403952  *
    38       H          0.90827364  *   1.21375863  *   3.42912029  *
    39       H          2.52867494  *   0.49688119  *   3.72352205  *
    40       H          4.01903715  *  -2.07415558  *   0.12557311  *
 


          CARTESIAN COORDINATES 

    NO.       ATOM           X           Y           Z

     1         O         -0.1676     -0.3737      0.4258
     2         C          1.0902     -0.2769      0.2945
     3         C          1.6716      1.0379      0.4144
     4         C          3.0203      1.1703      0.5294
     5         C          3.8813      0.0299      0.4904
     6         C          3.3666     -1.2044      0.2367
     7         C          1.9440     -1.4316      0.1090
     8         H          0.9906      1.8841      0.4340
     9         H          3.4781      2.1544      0.6511
    10         H          4.9466      0.1802      0.6346
    11         C          1.5906     -2.4404     -0.9750
    12         H          1.6721     -2.1921      1.2759
    13         C          0.1300     -2.7003     -1.1693
    14         H          2.1327     -3.3936     -0.7760
    15         H          1.9994     -2.0637     -1.9452
    16         C         -0.3719     -3.9332     -1.2421
    17         H         -0.4951     -1.8145     -1.2996
    18         H          0.2170     -4.8307     -1.1257
    19         H         -1.4165     -4.1405     -1.4161
    20         O          1.2414     -3.2501      1.8830
    21         C         -0.0176     -3.3406      2.0035
    22         C         -0.6096     -4.6488      1.8596
    23         C         -1.9589     -4.7708      1.7371
    24         C         -2.8105     -3.6253      1.7885
    25         C         -2.2856     -2.3985      2.0628
    26         C         -0.8647     -2.1846      2.1958
    27         H          0.0652     -5.4993      1.8316
    28         H         -2.4229     -5.7498      1.6007
    29         H         -3.8764     -3.7639      1.6383
    30         H         -2.9336     -1.5276      2.1878
    31         C         -0.5003     -1.1550      3.2531
    32         H         -0.5909     -1.4294      1.0008
    33         C          0.9628     -0.9181      3.4573
    34         H         -0.9246     -1.4961      4.2305
    35         H         -1.0223     -0.1969      3.0241
    36         C          1.4828      0.3067      3.5413
    37         H          1.5740     -1.8143      3.5840
    38         H          0.9083      1.2138      3.4291
    39         H          2.5287      0.4969      3.7235
    40         H          4.0190     -2.0742      0.1256

 General Reference for PM7:
 "Optimization of Parameters for Semiempirical Methods VI: More Modifications to the 
 NDDO Approximations and Re-optimization of Parameters", J. J. P. Stewart, J. Mol. Mod., 1:32, 19 (2013)
 https://link.springer.com/article/10.1007/s00894-012-1667-x

           Empirical Formula: C18 H20 O2  =    40 atoms



      MOLECULAR POINT GROUP   :   Ci  


      RHF CALCULATION, NO. OF DOUBLY OCCUPIED LEVELS = 52



          HEAT OF FORMATION =      22.588466 KCALS/MOLE


          GRADIENT NORM =   2.53150


          TIME FOR SCF CALCULATION =    0.12

          TIME FOR DERIVATIVES     =    0.04

          MOLECULAR WEIGHT =  268.35


          ESTIMATED TIME TO COMPLETE CALCULATION =       39.38 SECONDS

    FOR POINT-GROUP Ci   THERE ARE   2 UNIQUE SYMMETRY FUNCTIONS.

 STEP:   1 TIME =     0.07 SECS, INTEGRAL =      0.07 TIME LEFT: 172799.77
 STEP:   2 TIME =     0.06 SECS, INTEGRAL =      0.13 TIME LEFT: 172799.70
 STEP:   3 TIME =     0.06 SECS, INTEGRAL =      0.20 TIME LEFT: 172799.64
 STEP:   4 TIME =     0.05 SECS, INTEGRAL =      0.25 TIME LEFT: 172799.59
 STEP:   5 TIME =     0.06 SECS, INTEGRAL =      0.31 TIME LEFT: 172799.52
 STEP:   6 TIME =     0.06 SECS, INTEGRAL =      0.38 TIME LEFT: 172799.46
 STEP:   7 TIME =     0.05 SECS, INTEGRAL =      0.43 TIME LEFT: 172799.41
 STEP:   8 TIME =     0.06 SECS, INTEGRAL =      0.49 TIME LEFT: 172799.34
 STEP:   9 TIME =     0.06 SECS, INTEGRAL =      0.55 TIME LEFT: 172799.28
 STEP:  10 TIME =     0.06 SECS, INTEGRAL =      0.62 TIME LEFT: 172799.22
 STEP:  11 TIME =     0.05 SECS, INTEGRAL =      0.67 TIME LEFT: 172799.16
 STEP:  12 TIME =     0.06 SECS, INTEGRAL =      0.73 TIME LEFT: 172799.10
 STEP:  13 TIME =     0.06 SECS, INTEGRAL =      0.80 TIME LEFT: 172799.04
 STEP:  14 TIME =     0.06 SECS, INTEGRAL =      0.86 TIME LEFT: 172798.98
 STEP:  15 TIME =     0.05 SECS, INTEGRAL =      0.91 TIME LEFT: 172798.92
 STEP:  16 TIME =     0.06 SECS, INTEGRAL =      0.98 TIME LEFT: 172798.86
 STEP:  17 TIME =     0.06 SECS, INTEGRAL =      1.04 TIME LEFT: 172798.80
 STEP:  18 TIME =     0.06 SECS, INTEGRAL =      1.10 TIME LEFT: 172798.73
 STEP:  19 TIME =     0.06 SECS, INTEGRAL =      1.16 TIME LEFT: 172798.67
 STEP:  20 TIME =     0.07 SECS, INTEGRAL =      1.23 TIME LEFT: 172798.60
 STEP:  21 TIME =     0.06 SECS, INTEGRAL =      1.30 TIME LEFT: 172798.54
 STEP:  22 TIME =     0.06 SECS, INTEGRAL =      1.36 TIME LEFT: 172798.48
 STEP:  23 TIME =     0.05 SECS, INTEGRAL =      1.41 TIME LEFT: 172798.42
 STEP:  24 TIME =     0.06 SECS, INTEGRAL =      1.48 TIME LEFT: 172798.36
 STEP:  25 TIME =     0.06 SECS, INTEGRAL =      1.54 TIME LEFT: 172798.30
 STEP:  26 TIME =     0.05 SECS, INTEGRAL =      1.59 TIME LEFT: 172798.24
 STEP:  27 TIME =     0.07 SECS, INTEGRAL =      1.66 TIME LEFT: 172798.17
 STEP:  28 TIME =     0.06 SECS, INTEGRAL =      1.73 TIME LEFT: 172798.11
 STEP:  29 TIME =     0.06 SECS, INTEGRAL =      1.79 TIME LEFT: 172798.05
 STEP:  30 TIME =     0.06 SECS, INTEGRAL =      1.85 TIME LEFT: 172797.98
 STEP:  31 TIME =     0.05 SECS, INTEGRAL =      1.91 TIME LEFT: 172797.93
 STEP:  32 TIME =     0.07 SECS, INTEGRAL =      1.98 TIME LEFT: 172797.86
 STEP:  33 TIME =     0.05 SECS, INTEGRAL =      2.03 TIME LEFT: 172797.80
 STEP:  34 TIME =     0.06 SECS, INTEGRAL =      2.09 TIME LEFT: 172797.74
 STEP:  35 TIME =     0.05 SECS, INTEGRAL =      2.15 TIME LEFT: 172797.69
 STEP:  36 TIME =     0.06 SECS, INTEGRAL =      2.21 TIME LEFT: 172797.62
 STEP:  37 TIME =     0.07 SECS, INTEGRAL =      2.28 TIME LEFT: 172797.55
 STEP:  38 TIME =     0.06 SECS, INTEGRAL =      2.34 TIME LEFT: 172797.49
 STEP:  39 TIME =     0.06 SECS, INTEGRAL =      2.41 TIME LEFT: 172797.43
 STEP:  40 TIME =     0.06 SECS, INTEGRAL =      2.47 TIME LEFT: 172797.37
 STEP:  41 TIME =     0.06 SECS, INTEGRAL =      2.53 TIME LEFT: 172797.30
 STEP:  42 TIME =     0.06 SECS, INTEGRAL =      2.59 TIME LEFT: 172797.24
 STEP:  43 TIME =     0.06 SECS, INTEGRAL =      2.66 TIME LEFT: 172797.18
 STEP:  44 TIME =     0.06 SECS, INTEGRAL =      2.72 TIME LEFT: 172797.12
 STEP:  45 TIME =     0.06 SECS, INTEGRAL =      2.78 TIME LEFT: 172797.05
 STEP:  46 TIME =     0.05 SECS, INTEGRAL =      2.84 TIME LEFT: 172797.00
 STEP:  47 TIME =     0.06 SECS, INTEGRAL =      2.90 TIME LEFT: 172796.94
 STEP:  48 TIME =     0.06 SECS, INTEGRAL =      2.96 TIME LEFT: 172796.88
 STEP:  49 TIME =     0.05 SECS, INTEGRAL =      3.02 TIME LEFT: 172796.82
 STEP:  50 TIME =     0.06 SECS, INTEGRAL =      3.08 TIME LEFT: 172796.76
 STEP:  51 TIME =     0.06 SECS, INTEGRAL =      3.14 TIME LEFT: 172796.70
 STEP:  52 TIME =     0.06 SECS, INTEGRAL =      3.20 TIME LEFT: 172796.63
 STEP:  53 TIME =     0.06 SECS, INTEGRAL =      3.27 TIME LEFT: 172796.57
 STEP:  54 TIME =     0.05 SECS, INTEGRAL =      3.32 TIME LEFT: 172796.52
 STEP:  55 TIME =     0.06 SECS, INTEGRAL =      3.38 TIME LEFT: 172796.45
 STEP:  56 TIME =     0.05 SECS, INTEGRAL =      3.44 TIME LEFT: 172796.40
 STEP:  57 TIME =     0.07 SECS, INTEGRAL =      3.51 TIME LEFT: 172796.33
 STEP:  58                       INTEGRAL =      3.51 TIME LEFT: 172796.33
 STEP:  59                       INTEGRAL =      3.51 TIME LEFT: 172796.33
 STEP:  60                       INTEGRAL =      3.51 TIME LEFT: 172796.33
 STEP:  61                       INTEGRAL =      3.51 TIME LEFT: 172796.33
 STEP:  62                       INTEGRAL =      3.51 TIME LEFT: 172796.33
 STEP:  63                       INTEGRAL =      3.51 TIME LEFT: 172796.33
 STEP:  64                       INTEGRAL =      3.51 TIME LEFT: 172796.33
 STEP:  65                       INTEGRAL =      3.51 TIME LEFT: 172796.33
 STEP:  66                       INTEGRAL =      3.51 TIME LEFT: 172796.33
 STEP:  67                       INTEGRAL =      3.51 TIME LEFT: 172796.33
 STEP:  68                       INTEGRAL =      3.51 TIME LEFT: 172796.33
 STEP:  69                       INTEGRAL =      3.51 TIME LEFT: 172796.33
 STEP:  70                       INTEGRAL =      3.51 TIME LEFT: 172796.33
 STEP:  71                       INTEGRAL =      3.51 TIME LEFT: 172796.33
 STEP:  72                       INTEGRAL =      3.51 TIME LEFT: 172796.33
 STEP:  73                       INTEGRAL =      3.51 TIME LEFT: 172796.33
 STEP:  74                       INTEGRAL =      3.51 TIME LEFT: 172796.33
 STEP:  75                       INTEGRAL =      3.51 TIME LEFT: 172796.33
 STEP:  76                       INTEGRAL =      3.51 TIME LEFT: 172796.33
 STEP:  77                       INTEGRAL =      3.51 TIME LEFT: 172796.33
 STEP:  78                       INTEGRAL =      3.51 TIME LEFT: 172796.33
 STEP:  79                       INTEGRAL =      3.51 TIME LEFT: 172796.33
 STEP:  80                       INTEGRAL =      3.51 TIME LEFT: 172796.33
 STEP:  81                       INTEGRAL =      3.51 TIME LEFT: 172796.33
 STEP:  82                       INTEGRAL =      3.51 TIME LEFT: 172796.33
 STEP:  83                       INTEGRAL =      3.51 TIME LEFT: 172796.33
 STEP:  84                       INTEGRAL =      3.51 TIME LEFT: 172796.33
 STEP:  85                       INTEGRAL =      3.51 TIME LEFT: 172796.33
 STEP:  86                       INTEGRAL =      3.51 TIME LEFT: 172796.33
 STEP:  87                       INTEGRAL =      3.51 TIME LEFT: 172796.33
 STEP:  88 TIME =     0.06 SECS, INTEGRAL =      3.57 TIME LEFT: 172796.27
 STEP:  89 TIME =     0.06 SECS, INTEGRAL =      3.63 TIME LEFT: 172796.20
 STEP:  90 TIME =     0.05 SECS, INTEGRAL =      3.69 TIME LEFT: 172796.15
 STEP:  91                       INTEGRAL =      3.69 TIME LEFT: 172796.15
 STEP:  92                       INTEGRAL =      3.69 TIME LEFT: 172796.15
 STEP:  93                       INTEGRAL =      3.69 TIME LEFT: 172796.15
 STEP:  94                       INTEGRAL =      3.69 TIME LEFT: 172796.15
 STEP:  95                       INTEGRAL =      3.69 TIME LEFT: 172796.15
 STEP:  96                       INTEGRAL =      3.69 TIME LEFT: 172796.15
 STEP:  97                       INTEGRAL =      3.69 TIME LEFT: 172796.15
 STEP:  98                       INTEGRAL =      3.69 TIME LEFT: 172796.15
 STEP:  99                       INTEGRAL =      3.69 TIME LEFT: 172796.15
 STEP: 100                       INTEGRAL =      3.69 TIME LEFT: 172796.15
 STEP: 101                       INTEGRAL =      3.69 TIME LEFT: 172796.15
 STEP: 102                       INTEGRAL =      3.69 TIME LEFT: 172796.15
 STEP: 103                       INTEGRAL =      3.69 TIME LEFT: 172796.15
 STEP: 104                       INTEGRAL =      3.69 TIME LEFT: 172796.15
 STEP: 105                       INTEGRAL =      3.69 TIME LEFT: 172796.15
 STEP: 106                       INTEGRAL =      3.69 TIME LEFT: 172796.15
 STEP: 107                       INTEGRAL =      3.69 TIME LEFT: 172796.15
 STEP: 108                       INTEGRAL =      3.69 TIME LEFT: 172796.15
 STEP: 109                       INTEGRAL =      3.69 TIME LEFT: 172796.15
 STEP: 110                       INTEGRAL =      3.69 TIME LEFT: 172796.15
 STEP: 111                       INTEGRAL =      3.69 TIME LEFT: 172796.15
 STEP: 112                       INTEGRAL =      3.69 TIME LEFT: 172796.15
 STEP: 113                       INTEGRAL =      3.69 TIME LEFT: 172796.15
 STEP: 114                       INTEGRAL =      3.69 TIME LEFT: 172796.15
 STEP: 115                       INTEGRAL =      3.69 TIME LEFT: 172796.15
 STEP: 116                       INTEGRAL =      3.69 TIME LEFT: 172796.15
 STEP: 117                       INTEGRAL =      3.69 TIME LEFT: 172796.15
 STEP: 118                       INTEGRAL =      3.69 TIME LEFT: 172796.15
 STEP: 119                       INTEGRAL =      3.69 TIME LEFT: 172796.15
 STEP: 120                       INTEGRAL =      3.69 TIME LEFT: 172796.15
           INITIAL VELOCITY IN DRC (Angstroms/Femtosecond)
        -0.01970        -0.00437         0.00739
         0.02680        -0.01211         0.00652
        -0.00755        -0.00600         0.00134
         0.00433        -0.00412         0.00084
        -0.00154         0.00547         0.00046
        -0.01272        -0.00327         0.00239
         0.01025         0.01858        -0.02682
         0.00346        -0.00135         0.00308
        -0.00303        -0.00034        -0.00134
        -0.00160        -0.00266        -0.00002
        -0.00200         0.00015         0.00865
        -0.13430        -0.17989         0.24502
        -0.00062        -0.00026         0.00071
        -0.00049         0.00138         0.00560
        -0.00066        -0.00281         0.00457
        -0.00003        -0.00031         0.00010
         0.00080        -0.00309        -0.00624
        -0.00006        -0.00019         0.00098
        -0.00000        -0.00100        -0.00059
         0.01970         0.00437        -0.00739
        -0.02680         0.01211        -0.00652
         0.00755         0.00600        -0.00134
        -0.00433         0.00412        -0.00084
         0.00154        -0.00547        -0.00046
         0.01272         0.00327        -0.00239
        -0.01025        -0.01858         0.02682
        -0.00346         0.00135        -0.00308
         0.00303         0.00033         0.00133
         0.00160         0.00265         0.00001
         0.00453        -0.00204         0.00168
         0.00200        -0.00015        -0.00865
         0.13430         0.17989        -0.24502
         0.00062         0.00026        -0.00071
         0.00066         0.00281        -0.00457
         0.00049        -0.00138        -0.00560
         0.00003         0.00031        -0.00009
        -0.00080         0.00309         0.00625
         0.00006         0.00019        -0.00098
        -0.00000         0.00100         0.00059
        -0.00454         0.00204        -0.00168


     POINT   POTENTIAL  +  ENERGY LOST   =   TOTAL      ERROR    REF%   MOVEMENT
       1      22.58847      0.00000         22.58847   0.00000     1   %  0.0000
       2      16.37925      0.00000         16.37925  -6.20921     2   %  0.4335
       3      15.51342      0.00000         15.51342  -0.86583     3   %  0.4711
       4      15.07340      0.43810         15.51150  -0.86776     4   %  0.4847
       5      14.92947      0.58215         15.51161  -0.86764     5   %  0.4892
       6      14.74082      0.77093         15.51175  -0.86750     6   %  0.4953
       7      14.51190      0.99989         15.51178  -0.86747     7   %  0.5026
       8      14.18625      1.32567         15.51193  -0.86732     8   %  0.5133
       9      13.79958      1.71272         15.51231  -0.86694     9   %  0.5261
      10      13.51821      1.99425         15.51246  -0.86679    10   %  0.5355
      11      13.19517      2.31797         15.51314  -0.86611    11   %  0.5465
      12      13.01989      2.49365         15.51354  -0.86571    12   %  0.5525
      13      12.89542      2.61838         15.51379  -0.86546    13   %  0.5568
      14      12.78533      2.72861         15.51394  -0.86531    14   %  0.5606
      15      12.65860      2.85551         15.51411  -0.86514    15   %  0.5650
      16      12.51933      2.99498         15.51431  -0.86494    16   %  0.5699
      17      12.37966      3.13487         15.51453  -0.86472    17   %  0.5748
      18      12.24770      3.26705         15.51475  -0.86450    18   %  0.5794
      19      12.12240      3.39256         15.51496  -0.86429    19   %  0.5838
      20      12.00043      3.51473         15.51516  -0.86409    20   %  0.5882
      21      11.87980      3.63557         15.51537  -0.86388    21   %  0.5925
      22      11.76038      3.75519         15.51557  -0.86368    22   %  0.5967
      23      11.64267      3.87311         15.51578  -0.86347    23   %  0.6010
      24      11.52688      3.98911         15.51598  -0.86327    24   %  0.6051
      25      11.41291      4.10328         15.51619  -0.86306    25   %  0.6092
      26      11.30055      4.21584         15.51639  -0.86286    26   %  0.6133
      27      11.18965      4.32694         15.51659  -0.86266    27   %  0.6174
      28      11.08013      4.43666         15.51680  -0.86245    28   %  0.6214
      29      10.97194      4.54506         15.51700  -0.86225    29   %  0.6253
      30      10.86501      4.65220         15.51720  -0.86205    30   %  0.6292
      31      10.75928      4.75813         15.51741  -0.86184    31   %  0.6331
      32      10.65469      4.86292         15.51761  -0.86164    32   %  0.6370
      33      10.55118      4.96663         15.51781  -0.86144    33   %  0.6409
      34      10.44871      5.06930         15.51801  -0.86124    34   %  0.6447
      35      10.34723      5.17099         15.51822  -0.86103    35   %  0.6485
      36      10.24670      5.27172         15.51842  -0.86083    36   %  0.6522
      37      10.14708      5.37154         15.51862  -0.86063    37   %  0.6560
      38      10.04833      5.47049         15.51882  -0.86043    38   %  0.6597
      39       9.95041      5.56861         15.51902  -0.86023    39   %  0.6634
      40       9.85330      5.66592         15.51922  -0.86003    40   %  0.6671
      41       9.75696      5.76246         15.51943  -0.85982    41   %  0.6708
      42       9.66137      5.85826         15.51963  -0.85962    42   %  0.6745
      43       9.56650      5.95334         15.51984  -0.85941    43   %  0.6781
      44       9.47460      6.04543         15.52003  -0.85922    44   %  0.6816
      45       9.38146      6.13877         15.52023  -0.85902    45   %  0.6852
      46       9.28852      6.23192         15.52044  -0.85881    46   %  0.6888
      47       9.19834      6.32230         15.52063  -0.85862    47   %  0.6923
      48       9.10697      6.41386         15.52083  -0.85842    48   %  0.6959
      49       9.01582      6.50522         15.52103  -0.85822    49   %  0.6995
      50       8.92510      6.59613         15.52123  -0.85802    50   %  0.7030
      51       8.83504      6.68639         15.52143  -0.85782    51   %  0.7066
      52       8.74554      6.77609         15.52163  -0.85762    52   %  0.7101
      53       8.65655      6.86528         15.52183  -0.85742    53   %  0.7137
      54       8.56804      6.95399         15.52203  -0.85722    54   %  0.7172
      55       8.47999      7.04224         15.52223  -0.85702    55   %  0.7207
      56       8.39241      7.13003         15.52243  -0.85682    56   %  0.7242
      57       8.30526      7.21737         15.52263  -0.85662    57   %  0.7277
      58       8.21854      7.30429         15.52283  -0.85642    58   %  0.7312
      59       8.13223      7.39080         15.52303  -0.85622    59   %  0.7347
      60       8.04632      7.47691         15.52323  -0.85602    60   %  0.7382
      61       7.96080      7.56263         15.52343  -0.85582    61   %  0.7417
      62       7.87565      7.64798         15.52363  -0.85562    62   %  0.7452
      63       7.79086      7.73297         15.52383  -0.85542    63   %  0.7487
      64       7.70642      7.81761         15.52402  -0.85523    64   %  0.7521
      65       7.62231      7.90191         15.52422  -0.85503    65   %  0.7556
      66       7.53854      7.98589         15.52442  -0.85483    66   %  0.7591
      67       7.45507      8.06955         15.52462  -0.85463    67   %  0.7625
      68       7.37191      8.15291         15.52482  -0.85443    68   %  0.7660
      69       7.28905      8.23597         15.52502  -0.85423    69   %  0.7695
      70       7.20646      8.31876         15.52522  -0.85403    70   %  0.7729
      71       7.12415      8.40127         15.52542  -0.85383    71   %  0.7764
      72       7.04210      8.48352         15.52561  -0.85364    72   %  0.7799
      73       6.96030      8.56551         15.52581  -0.85344    73   %  0.7834
      74       6.87875      8.64726         15.52601  -0.85324    74   %  0.7868
      75       6.79743      8.72878         15.52621  -0.85304    75   %  0.7903
      76       6.71633      8.81007         15.52641  -0.85284    76   %  0.7938
      77       6.63545      8.89115         15.52661  -0.85264    77   %  0.7972
      78       6.55478      8.97202         15.52681  -0.85245    78   %  0.8007
      79       6.47430      9.05270         15.52700  -0.85225    79   %  0.8042
      80       6.39402      9.13318         15.52720  -0.85205    80   %  0.8077
      81       6.31391      9.21349         15.52740  -0.85185    81   %  0.8112
      82       6.23398      9.29362         15.52760  -0.85165    82   %  0.8147
      83       6.15421      9.37359         15.52780  -0.85146    83   %  0.8182
      84       6.07459      9.45340         15.52799  -0.85126    84   %  0.8217
      85       5.99513      9.53306         15.52819  -0.85106    85   %  0.8252
      86       5.91580      9.61259         15.52839  -0.85086    86   %  0.8287
      87       5.83661      9.69198         15.52859  -0.85066    87   %  0.8322
      88       5.75754      9.77124         15.52878  -0.85047    88   %  0.8357
      89       5.67859      9.85039         15.52898  -0.85027    89   %  0.8393
      90       5.59975      9.92943         15.52918  -0.85007    90   %  0.8428
      91       5.52101     10.00837         15.52938  -0.84987    91   %  0.8463
      92       5.44236     10.08721         15.52957  -0.84968    92   %  0.8499
      93       5.36380     10.16597         15.52977  -0.84948    93   %  0.8534
      94       5.28533     10.24464         15.52997  -0.84928    94   %  0.8570
      95       5.20693     10.32324         15.53017  -0.84908    95   %  0.8606
      96       5.12859     10.40177         15.53036  -0.84889    96   %  0.8641
      97       5.05032     10.48024         15.53056  -0.84869    97   %  0.8677
      98       4.97210     10.55866         15.53076  -0.84849    98   %  0.8713
      99       4.89393     10.63703         15.53096  -0.84829    99   %  0.8749
     100       4.81580     10.71536         15.53115  -0.84810   100   %  0.8786


          FINAL GEOMETRY OBTAINED                                 CHARGE
 PM7 CHARGE=0 IRC=1 LARGE=100 LET CYCLES=10000
 (irc)

   O    0.000000  0    0.000000  0    0.000000  0   0  0  0   -0.5296     100AA*
   C    1.311977  1    0.000000  0    0.000000  0   1  0  0    0.3983     100AB*
   C    1.426178  1  115.932568  1    0.000000  0   2  1  0   -0.2834     100AC*
   C    1.373681  1  118.594218  1  168.390106  1   3  2  1   -0.0430     100AD*
   C    1.415583  1  121.012548  1    1.651704  1   4  3  2   -0.2607     100AE*
   C    1.375400  1  119.923287  1    5.050901  1   5  4  3   -0.0476     100AF*
   C    1.425612  1  121.432564  1  356.431091  1   6  5  4   -0.3166     100AG*
   H    1.085785  1  118.914191  1  349.784153  1   3  2  1    0.1763     100AH*
   H    1.090974  1  120.418994  1  181.636893  1   4  3  2    0.1470     100AI*
   H    1.085699  1  118.980416  1  183.025105  1   5  4  3    0.1563     100AJ*
   C    1.516531  1  113.999876  1  143.206451  1   7  6  5   -0.2470     100AK*
   H    1.719396  1  100.974394  1  246.861315  1   7  6  5    0.3909     100AL*
   C    1.495251  1  116.425238  1  179.630099  1  11  7  6   -0.1401     100AM*
   H    1.112768  1  110.054267  1   52.872707  1  11  7  6    0.1594     100AN*
   H    1.120674  1  106.582928  1  299.370030  1  11  7  6    0.1611     100AO*
   C    1.332723  1  122.336614  1  226.555752  1  13 11  7   -0.3147     100AP*
   H    1.090867  1  115.711671  1   49.681437  1  13 11  7    0.1556     100AQ*
   H    1.079029  1  123.942510  1    2.537012  1  16 13 11    0.1474     100AR*
   H    1.078792  1  123.394996  1  181.926859  1  16 13 11    0.1446     100AS*
   O    1.036501  1  149.116380  1  241.859131  1  12  7  6   -0.5363     100AT*
   C    1.311867  1  114.907855  1  275.576414  1  20 12  7    0.3928     100AU*
   C    1.426109  1  116.114730  1  147.923199  1  21 20 12   -0.2798     100AV*
   C    1.374091  1  118.719690  1  191.449192  1  22 21 20   -0.0486     100AW*
   C    1.414473  1  120.946452  1  358.456823  1  23 22 21   -0.2571     100AX*
   C    1.376215  1  119.871559  1  354.912373  1  24 23 22   -0.0542     100AY*
   C    1.423332  1  121.466387  1    3.759730  1  25 24 23   -0.3062     100B@*
   H    1.085839  1  118.848843  1   10.197621  1  22 21 20    0.1757     100BA*
   H    1.090728  1  120.427152  1  178.497135  1  23 22 21    0.1469     100BB*
   H    1.085547  1  119.067307  1  177.026808  1  24 23 22    0.1558     100BC*
   H    1.091645  1  120.208578  1  185.513175  1  25 24 23    0.1513     100BD*
   C    1.515461  1  114.256613  1  214.355162  1  26 25 24   -0.2495     100BE*
   H    1.031255  1  115.039552  1  209.106621  1   1  2  3    0.3892     100BF*
   C    1.495195  1  116.520451  1  179.897527  1  31 26 25   -0.1364     100BG*
   H    1.120923  1  106.544132  1   60.270952  1  31 26 25    0.1620     100BH*
   H    1.112803  1  110.121120  1  306.806368  1  31 26 25    0.1599     100BI*
   C    1.332869  1  122.350802  1  135.496537  1  33 31 26   -0.3193     100BJ*
   H    1.091143  1  115.712833  1  312.341886  1  33 31 26    0.1571     100BK*
   H    1.078791  1  123.949005  1  357.505033  1  36 33 31    0.1469     100BL*
   H    1.078701  1  123.381879  1  177.975861  1  36 33 31    0.1445     100BM*
   H    1.091666  1  120.320462  1  174.681377  1   6  5  4    0.1513     100BN*


     POINT   POTENTIAL  +  ENERGY LOST   =   TOTAL      ERROR    REF%   MOVEMENT
     101       4.73770     10.79365         15.53135  -0.84790   101   %  0.8822
     102       4.65963     10.87191         15.53155  -0.84770   102   %  0.8858
     103       4.58159     10.95016         15.53175  -0.84751   103   %  0.8895
     104       4.50356     11.02838         15.53194  -0.84731   104   %  0.8931
     105       4.42555     11.10659         15.53214  -0.84711   105   %  0.8968
     106       4.34754     11.18480         15.53234  -0.84691   106   %  0.9004
     107       4.26953     11.26300         15.53253  -0.84672   107   %  0.9041
     108       4.19152     11.34122         15.53273  -0.84652   108   %  0.9078
     109       4.11349     11.41944         15.53293  -0.84632   109   %  0.9115
     110       4.03545     11.49767         15.53312  -0.84613   110   %  0.9153
     111       3.95739     11.57593         15.53332  -0.84593   111   %  0.9190
     112       3.87931     11.65421         15.53352  -0.84573   112   %  0.9227
     113       3.80120     11.73252         15.53372  -0.84554   113   %  0.9265
     114       3.72305     11.81086         15.53391  -0.84534   114   %  0.9303
     115       3.64487     11.88924         15.53411  -0.84514   115   %  0.9341
     116       3.56664     11.96767         15.53431  -0.84495   116   %  0.9379
     117       3.48837     12.04613         15.53450  -0.84475   117   %  0.9417
     118       3.41005     12.12465         15.53470  -0.84455   118   %  0.9455
     119       3.33168     12.20322         15.53490  -0.84435   119   %  0.9493
     120       3.25325     12.28184         15.53509  -0.84416   120   %  0.9532
     121       3.17477     12.36052         15.53529  -0.84396   121   %  0.9571
     122       3.09622     12.43927         15.53549  -0.84376   122   %  0.9609
     123       3.01761     12.51807         15.53568  -0.84357   123   %  0.9648
     124       2.93893     12.59695         15.53588  -0.84337   124   %  0.9688
     125       2.86019     12.67589         15.53608  -0.84317   125   %  0.9727
     126       2.78138     12.75490         15.53627  -0.84298   126   %  0.9766
     127       2.70249     12.83398         15.53647  -0.84278   127   %  0.9806
     128       2.62354     12.91313         15.53667  -0.84258   128   %  0.9845
     129       2.54451     12.99236         15.53686  -0.84239   129   %  0.9885
     130       2.46540     13.07166         15.53706  -0.84219   130   %  0.9925
     131       2.38622     13.15103         15.53726  -0.84199   131   %  0.9966
     132       2.30697     13.23048         15.53745  -0.84180   132   %  1.0006
     133       2.22764     13.31001         15.53765  -0.84160   133   %  1.0046
     134       2.14824     13.38961         15.53785  -0.84140   134   %  1.0087
     135       2.06876     13.46929         15.53804  -0.84121   135   %  1.0128
     136       1.98920     13.54904         15.53824  -0.84101   136   %  1.0169
     137       1.90958     13.62886         15.53844  -0.84081   137   %  1.0210
     138       1.82988     13.70875         15.53863  -0.84062   138   %  1.0251
     139       1.75011     13.78872         15.53883  -0.84042   139   %  1.0293
     140       1.67028     13.86875         15.53903  -0.84022   140   %  1.0335
     141       1.59038     13.94885         15.53922  -0.84003   141   %  1.0376
     142       1.51041     14.02901         15.53942  -0.83983   142   %  1.0418
     143       1.43038     14.10923         15.53962  -0.83963   143   %  1.0460
     144       1.35030     14.18952         15.53981  -0.83944   144   %  1.0503
     145       1.27015     14.26986         15.54001  -0.83924   145   %  1.0545
     146       1.18995     14.35025         15.54021  -0.83904   146   %  1.0588
     147       1.10971     14.43070         15.54040  -0.83885   147   %  1.0631
     148       1.02941     14.51119         15.54060  -0.83865   148   %  1.0674
     149       0.94908     14.59172         15.54080  -0.83845   149   %  1.0717
     150       0.86870     14.67230         15.54100  -0.83826   150   %  1.0760
     151       0.78829     14.75291         15.54119  -0.83806   151   %  1.0804
     152       0.70784     14.83355         15.54139  -0.83786   152   %  1.0847
     153       0.62737     14.91421         15.54159  -0.83766   153   %  1.0891
     154       0.54688     14.99490         15.54178  -0.83747   154   %  1.0935
     155       0.46637     15.07561         15.54198  -0.83727   155   %  1.0979
     156       0.38584     15.15634         15.54218  -0.83707   156   %  1.1023
     157       0.30530     15.23707         15.54237  -0.83688   157   %  1.1068
     158       0.22476     15.31781         15.54257  -0.83668   158   %  1.1113
     159       0.14423     15.39854         15.54277  -0.83648   159   %  1.1157
     160       0.06369     15.47927         15.54297  -0.83628   160   %  1.1202
     161      -0.01683     15.56000         15.54316  -0.83609   161   %  1.1247
     162      -0.09734     15.64070         15.54336  -0.83589   162   %  1.1293
     163      -0.17783     15.72139         15.54356  -0.83569   163   %  1.1338
     164      -0.25830     15.80205         15.54375  -0.83550   164   %  1.1384
     165      -0.33873     15.88269         15.54395  -0.83530   165   %  1.1429
     166      -0.41913     15.96328         15.54415  -0.83510   166   %  1.1475
     167      -0.49949     16.04384         15.54435  -0.83490   167   %  1.1522
     168      -0.57981     16.12435         15.54454  -0.83471   168   %  1.1568
     169      -0.66008     16.20482         15.54474  -0.83451   169   %  1.1614
     170      -0.74029     16.28522         15.54494  -0.83431   170   %  1.1661
     171      -0.82044     16.36557         15.54514  -0.83411   171   %  1.1707
     172      -0.90052     16.44586         15.54533  -0.83392   172   %  1.1754
     173      -0.98054     16.52607         15.54553  -0.83372   173   %  1.1801
     174      -1.06049     16.60621         15.54573  -0.83352   174   %  1.1849
     175      -1.14035     16.68628         15.54593  -0.83333   175   %  1.1896
     176      -1.22013     16.76626         15.54612  -0.83313   176   %  1.1944
     177      -1.29983     16.84615         15.54632  -0.83293   177   %  1.1991
     178      -1.37943     16.92595         15.54652  -0.83273   178   %  1.2039
     179      -1.45894     17.00565         15.54672  -0.83253   179   %  1.2087
     180      -1.53834     17.08526         15.54691  -0.83234   180   %  1.2135
     181      -1.61764     17.16475         15.54711  -0.83214   181   %  1.2184
     182      -1.69683     17.24414         15.54731  -0.83194   182   %  1.2232
     183      -1.77591     17.32342         15.54751  -0.83174   183   %  1.2281
     184      -1.85487     17.40258         15.54770  -0.83155   184   %  1.2330
     185      -1.93371     17.48162         15.54790  -0.83135   185   %  1.2378
     186      -2.01243     17.56053         15.54810  -0.83115   186   %  1.2428
     187      -2.09102     17.63931         15.54830  -0.83095   187   %  1.2477
     188      -2.16947     17.71797         15.54849  -0.83076   188   %  1.2526
     189      -2.24779     17.79648         15.54869  -0.83056   189   %  1.2576
     190      -2.32597     17.87486         15.54889  -0.83036   190   %  1.2626
     191      -2.40401     17.95310         15.54909  -0.83016   191   %  1.2675
     192      -2.48190     18.03119         15.54929  -0.82997   192   %  1.2726
     193      -2.55965     18.10913         15.54948  -0.82977   193   %  1.2776
     194      -2.63724     18.18692         15.54968  -0.82957   194   %  1.2826
     195      -2.71468     18.26456         15.54988  -0.82937   195   %  1.2877
     196      -2.79196     18.34204         15.55008  -0.82917   196   %  1.2927
     197      -2.86908     18.41936         15.55027  -0.82898   197   %  1.2978
     198      -2.94604     18.49651         15.55047  -0.82878   198   %  1.3029
     199      -3.02283     18.57350         15.55067  -0.82858   199   %  1.3080
     200      -3.09945     18.65032         15.55087  -0.82838   200   %  1.3132


          FINAL GEOMETRY OBTAINED                                 CHARGE
 PM7 CHARGE=0 IRC=1 LARGE=100 LET CYCLES=10000
 (irc)

   O    0.000000  0    0.000000  0    0.000000  0   0  0  0   -0.5138     200AA*
   C    1.331340  1    0.000000  0    0.000000  0   1  0  0    0.3522     200AB*
   C    1.413019  1  115.164861  1    0.000000  0   2  1  0   -0.2652     200AC*
   C    1.381090  1  118.230146  1  169.019735  1   3  2  1   -0.0637     200AD*
   C    1.406637  1  120.827556  1    1.144718  1   4  3  2   -0.2415     200AE*
   C    1.383001  1  119.949876  1    5.455128  1   5  4  3   -0.0730     200AF*
   C    1.412614  1  120.950764  1  357.656687  1   6  5  4   -0.2609     200AG*
   H    1.085858  1  119.426842  1  350.275329  1   3  2  1    0.1758     200AH*
   H    1.090113  1  120.140443  1  181.352616  1   4  3  2    0.1475     200AI*
   H    1.086040  1  119.367426  1  183.218854  1   5  4  3    0.1553     200AJ*
   C    1.509685  1  114.777116  1  144.573739  1   7  6  5   -0.2542     200AK*
   H    1.836929  1   99.010208  1  247.805487  1   7  6  5    0.3714     200AL*
   C    1.494248  1  117.033337  1  178.548193  1  11  7  6   -0.1427     200AM*
   H    1.112564  1  110.606770  1   50.604582  1  11  7  6    0.1620     200AN*
   H    1.123617  1  105.553903  1  297.517985  1  11  7  6    0.1640     200AO*
   C    1.332676  1  122.293111  1  225.075748  1  13 11  7   -0.3108     200AP*
   H    1.091065  1  115.790021  1   48.378935  1  13 11  7    0.1545     200AQ*
   H    1.079245  1  123.935284  1    2.432384  1  16 13 11    0.1479     200AR*
   H    1.078949  1  123.394656  1  181.745765  1  16 13 11    0.1448     200AS*
   O    1.000685  1  142.256558  1  242.976980  1  12  7  6   -0.5186     200AT*
   C    1.331911  1  114.205173  1  272.150693  1  20 12  7    0.3474     200AU*
   C    1.412671  1  115.328022  1  153.675167  1  21 20 12   -0.2617     200AV*
   C    1.381558  1  118.333163  1  190.821539  1  22 21 20   -0.0684     200AW*
   C    1.405793  1  120.769531  1  358.907390  1  23 22 21   -0.2381     200AX*
   C    1.383492  1  119.907630  1  354.544776  1  24 23 22   -0.0789     200AY*
   C    1.411397  1  121.023299  1    2.557534  1  25 24 23   -0.2509     200B@*
   H    1.085980  1  119.396689  1    9.625575  1  22 21 20    0.1755     200BA*
   H    1.089947  1  120.146147  1  178.712990  1  23 22 21    0.1476     200BB*
   H    1.086011  1  119.439927  1  176.840620  1  24 23 22    0.1550     200BC*
   H    1.090931  1  120.008805  1  185.711575  1  25 24 23    0.1533     200BD*
   C    1.509039  1  114.976714  1  213.059275  1  26 25 24   -0.2563     200BE*
   H    1.000658  1  114.242703  1  203.193584  1   1  2  3    0.3704     200BF*
   C    1.494337  1  117.082486  1  180.955328  1  31 26 25   -0.1393     200BG*
   H    1.123683  1  105.591456  1   62.036739  1  31 26 25    0.1647     200BH*
   H    1.112732  1  110.617532  1  308.939847  1  31 26 25    0.1627     200BI*
   C    1.332804  1  122.321715  1  136.908409  1  33 31 26   -0.3147     200BJ*
   H    1.091214  1  115.788695  1  313.541321  1  33 31 26    0.1558     200BK*
   H    1.079046  1  123.944261  1  357.556720  1  36 33 31    0.1474     200BL*
   H    1.078867  1  123.379599  1  178.154889  1  36 33 31    0.1447     200BM*
   H    1.090919  1  120.095237  1  174.399055  1   6  5  4    0.1531     200BN*


     POINT   POTENTIAL  +  ENERGY LOST   =   TOTAL      ERROR    REF%   MOVEMENT
     201      -3.17591     18.72697         15.55107  -0.82819   201   %  1.3183
     202      -3.25219     18.80345         15.55126  -0.82799   202   %  1.3235
     203      -3.32829     18.87975         15.55146  -0.82779   203   %  1.3287
     204      -3.40422     18.95587         15.55166  -0.82759   204   %  1.3338
     205      -3.47996     19.03182         15.55186  -0.82739   205   %  1.3391
     206      -3.55553     19.10758         15.55205  -0.82720   206   %  1.3443
     207      -3.63091     19.18316         15.55225  -0.82700   207   %  1.3495
     208      -3.70610     19.25855         15.55245  -0.82680   208   %  1.3548
     209      -3.78111     19.33376         15.55265  -0.82660   209   %  1.3601
     210      -3.85592     19.40877         15.55285  -0.82640   210   %  1.3654
     211      -3.93055     19.48359         15.55304  -0.82621   211   %  1.3707
     212      -4.00498     19.55822         15.55324  -0.82601   212   %  1.3760
     213      -4.07922     19.63266         15.55344  -0.82581   213   %  1.3813
     214      -4.15326     19.70690         15.55364  -0.82561   214   %  1.3867
     215      -4.22710     19.78094         15.55384  -0.82541   215   %  1.3921
     216      -4.30074     19.85478         15.55403  -0.82522   216   %  1.3974
     217      -4.37419     19.92842         15.55423  -0.82502   217   %  1.4029
     218      -4.44743     20.00186         15.55443  -0.82482   218   %  1.4083
     219      -4.52046     20.07509         15.55463  -0.82462   219   %  1.4137
     220      -4.59329     20.14812         15.55483  -0.82443   220   %  1.4192
     221      -4.66592     20.22094         15.55502  -0.82423   221   %  1.4246
     222      -4.73834     20.29356         15.55522  -0.82403   222   %  1.4301
     223      -4.81055     20.36597         15.55542  -0.82383   223   %  1.4356
     224      -4.88255     20.43817         15.55562  -0.82363   224   %  1.4411
     225      -4.95434     20.51016         15.55581  -0.82344   225   %  1.4467
     226      -5.02592     20.58194         15.55601  -0.82324   226   %  1.4522
     227      -5.09729     20.65350         15.55621  -0.82304   227   %  1.4578
     228      -5.16845     20.72485         15.55641  -0.82284   228   %  1.4634
     229      -5.23939     20.79599         15.55661  -0.82264   229   %  1.4690
     230      -5.31012     20.86692         15.55680  -0.82245   230   %  1.4746
     231      -5.38063     20.93763         15.55700  -0.82225   231   %  1.4803
     232      -5.45093     21.00813         15.55720  -0.82205   232   %  1.4859
     233      -5.52101     21.07840         15.55740  -0.82185   233   %  1.4916
     234      -5.59087     21.14847         15.55760  -0.82165   234   %  1.4973
     235      -5.66052     21.21831         15.55779  -0.82146   235   %  1.5030
     236      -5.72995     21.28794         15.55799  -0.82126   236   %  1.5087
     237      -5.79916     21.35735         15.55819  -0.82106   237   %  1.5145
     238      -5.86815     21.42654         15.55839  -0.82086   238   %  1.5202
     239      -5.93692     21.49551         15.55859  -0.82067   239   %  1.5260
     240      -6.00547     21.56426         15.55878  -0.82047   240   %  1.5318
     241      -6.07381     21.63279         15.55898  -0.82027   241   %  1.5376
     242      -6.14192     21.70110         15.55918  -0.82007   242   %  1.5434
     243      -6.20981     21.76919         15.55938  -0.81987   243   %  1.5493
     244      -6.27749     21.83706         15.55957  -0.81968   244   %  1.5551
     245      -6.34494     21.90471         15.55977  -0.81948   245   %  1.5610
     246      -6.41217     21.97214         15.55997  -0.81928   246   %  1.5669
     247      -6.47919     22.03935         15.56017  -0.81908   247   %  1.5729
     248      -6.54598     22.10634         15.56037  -0.81888   248   %  1.5788
     249      -6.61255     22.17311         15.56056  -0.81869   249   %  1.5848
     250      -6.67890     22.23966         15.56076  -0.81849   250   %  1.5907
     251      -6.74503     22.30599         15.56096  -0.81829   251   %  1.5967
     252      -6.81093     22.37209         15.56116  -0.81809   252   %  1.6027
     253      -6.87662     22.43798         15.56135  -0.81790   253   %  1.6088
     254      -6.94209     22.50364         15.56155  -0.81770   254   %  1.6148
     255      -7.00734     22.56909         15.56175  -0.81750   255   %  1.6209
     256      -7.07237     22.63432         15.56195  -0.81730   256   %  1.6270
     257      -7.13718     22.69932         15.56215  -0.81710   257   %  1.6331
     258      -7.20177     22.76411         15.56234  -0.81691   258   %  1.6392
     259      -7.26614     22.82868         15.56254  -0.81671   259   %  1.6454
     260      -7.33029     22.89303         15.56274  -0.81651   260   %  1.6515
     261      -7.39422     22.95716         15.56294  -0.81631   261   %  1.6577
     262      -7.45794     23.02107         15.56313  -0.81612   262   %  1.6639
     263      -7.52144     23.08477         15.56333  -0.81592   263   %  1.6702
     264      -7.58472     23.14825         15.56353  -0.81572   264   %  1.6764
     265      -7.64779     23.21151         15.56373  -0.81552   265   %  1.6827
     266      -7.71064     23.27456         15.56393  -0.81533   266   %  1.6890
     267      -7.77327     23.33739         15.56412  -0.81513   267   %  1.6953
     268      -7.83569     23.40001         15.56432  -0.81493   268   %  1.7016
     269      -7.89789     23.46241         15.56452  -0.81473   269   %  1.7080
     270      -7.95988     23.52460         15.56472  -0.81453   270   %  1.7144
     271      -8.02166     23.58657         15.56491  -0.81434   271   %  1.7208
     272      -8.08323     23.64834         15.56511  -0.81414   272   %  1.7272
     273      -8.14458     23.70989         15.56531  -0.81394   273   %  1.7336
     274      -8.20572     23.77123         15.56551  -0.81374   274   %  1.7401
     275      -8.26666     23.83236         15.56570  -0.81355   275   %  1.7466
     276      -8.32738     23.89328         15.56590  -0.81335   276   %  1.7531
     277      -8.38789     23.95399         15.56610  -0.81315   277   %  1.7596
     278      -8.44820     24.01449         15.56630  -0.81295   278   %  1.7662
     279      -8.50830     24.07479         15.56649  -0.81276   279   %  1.7727
     280      -8.56819     24.13488         15.56669  -0.81256   280   %  1.7793
     281      -8.62788     24.19476         15.56689  -0.81236   281   %  1.7860
     282      -8.68736     24.25444         15.56709  -0.81216   282   %  1.7926
     283      -8.74664     24.31392         15.56728  -0.81197   283   %  1.7993
     284      -8.80571     24.37319         15.56748  -0.81177   284   %  1.8060
     285      -8.86459     24.43226         15.56768  -0.81157   285   %  1.8127
     286      -8.92326     24.49113         15.56788  -0.81138   286   %  1.8195
     287      -8.98173     24.54980         15.56807  -0.81118   287   %  1.8262
     288      -9.04001     24.60828         15.56827  -0.81098   288   %  1.8330
     289      -9.09808     24.66655         15.56847  -0.81078   289   %  1.8399
     290      -9.15596     24.72463         15.56866  -0.81059   290   %  1.8467
     291      -9.21365     24.78251         15.56886  -0.81039   291   %  1.8536
     292      -9.27113     24.84019         15.56906  -0.81019   292   %  1.8605
     293      -9.32843     24.89769         15.56926  -0.80999   293   %  1.8674
     294      -9.38553     24.95499         15.56945  -0.80980   294   %  1.8744
     295      -9.44245     25.01210         15.56965  -0.80960   295   %  1.8814
     296      -9.49917     25.06902         15.56985  -0.80940   296   %  1.8884
     297      -9.55570     25.12575         15.57005  -0.80921   297   %  1.8954
     298      -9.61205     25.18229         15.57024  -0.80901   298   %  1.9025
     299      -9.66821     25.23865         15.57044  -0.80881   299   %  1.9096
     300      -9.72418     25.29482         15.57064  -0.80861   300   %  1.9167


          FINAL GEOMETRY OBTAINED                                 CHARGE
 PM7 CHARGE=0 IRC=1 LARGE=100 LET CYCLES=10000
 (irc)

   O    0.000000  0    0.000000  0    0.000000  0   0  0  0   -0.5008     300AA*
   C    1.342145  1    0.000000  0    0.000000  0   1  0  0    0.3190     300AB*
   C    1.404119  1  114.662072  1    0.000000  0   2  1  0   -0.2538     300AC*
   C    1.385186  1  118.215371  1  169.764984  1   3  2  1   -0.0788     300AD*
   C    1.400701  1  120.617118  1    0.115459  1   4  3  2   -0.2282     300AE*
   C    1.387327  1  120.014068  1    6.342742  1   5  4  3   -0.0935     300AF*
   C    1.404179  1  120.474834  1  358.915958  1   6  5  4   -0.2181     300AG*
   H    1.086038  1  119.494699  1  350.770594  1   3  2  1    0.1750     300AH*
   H    1.089419  1  119.918034  1  180.659567  1   4  3  2    0.1478     300AI*
   H    1.086196  1  119.681124  1  183.799587  1   5  4  3    0.1542     300AJ*
   C    1.500503  1  115.734322  1  146.602598  1   7  6  5   -0.2614     300AK*
   H    1.974461  1   96.227837  1  249.578976  1   7  6  5    0.3609     300AL*
   C    1.492953  1  117.661566  1  177.260148  1  11  7  6   -0.1463     300AM*
   H    1.113011  1  110.816841  1   48.466187  1  11  7  6    0.1648     300AN*
   H    1.126132  1  105.059220  1  295.664730  1  11  7  6    0.1664     300AO*
   C    1.332486  1  122.209205  1  223.126229  1  13 11  7   -0.3059     300AP*
   H    1.091319  1  115.903857  1   47.004785  1  13 11  7    0.1525     300AQ*
   H    1.079454  1  123.904250  1    2.537338  1  16 13 11    0.1485     300AR*
   H    1.079040  1  123.412393  1  181.768569  1  16 13 11    0.1449     300AS*
   O    0.997522  1  132.403867  1  243.051073  1  12  7  6   -0.5042     300AT*
   C    1.342913  1  113.480372  1  268.764205  1  20 12  7    0.3154     300AU*
   C    1.404026  1  114.751416  1  161.292111  1  21 20 12   -0.2510     300AV*
   C    1.385538  1  118.291010  1  190.074712  1  22 21 20   -0.0823     300AW*
   C    1.400156  1  120.572829  1  359.848377  1  23 22 21   -0.2257     300AX*
   C    1.387689  1  119.977554  1  353.730519  1  24 23 22   -0.0980     300AY*
   C    1.403670  1  120.591692  1    1.321030  1  25 24 23   -0.2102     300B@*
   H    1.086155  1  119.484736  1    9.037830  1  22 21 20    0.1748     300BA*
   H    1.089295  1  119.923471  1  179.308187  1  23 22 21    0.1478     300BB*
   H    1.086174  1  119.735006  1  176.280121  1  24 23 22    0.1540     300BC*
   H    1.090276  1  119.971598  1  185.661580  1  25 24 23    0.1543     300BD*
   C    1.500482  1  115.866767  1  211.155115  1  26 25 24   -0.2630     300BE*
   H    0.998026  1  113.508979  1  195.739819  1   1  2  3    0.3602     300BF*
   C    1.493182  1  117.669710  1  182.201346  1  31 26 25   -0.1435     300BG*
   H    1.125950  1  105.166527  1   63.766275  1  31 26 25    0.1668     300BH*
   H    1.113226  1  110.766486  1  310.914908  1  31 26 25    0.1657     300BI*
   C    1.332638  1  122.254642  1  138.737195  1  33 31 26   -0.3093     300BJ*
   H    1.091415  1  115.898001  1  314.773249  1  33 31 26    0.1536     300BK*
   H    1.079263  1  123.917135  1  357.414879  1  36 33 31    0.1482     300BL*
   H    1.078978  1  123.394902  1  178.135537  1  36 33 31    0.1449     300BM*
   H    1.090237  1  120.058773  1  174.352056  1   6  5  4    0.1543     300BN*


     POINT   POTENTIAL  +  ENERGY LOST   =   TOTAL      ERROR    REF%   MOVEMENT
     301      -9.77997     25.35081         15.57083  -0.80842   301   %  1.9239
     302      -9.83558     25.40661         15.57103  -0.80822   302   %  1.9310
     303      -9.89101     25.46224         15.57123  -0.80802   303   %  1.9383
     304      -9.94626     25.51768         15.57143  -0.80783   304   %  1.9455
     305     -10.00132     25.57295         15.57162  -0.80763   305   %  1.9528
     306     -10.05622     25.62804         15.57182  -0.80743   306   %  1.9601
     307     -10.11093     25.68295         15.57202  -0.80723   307   %  1.9674
     308     -10.16547     25.73769         15.57221  -0.80704   308   %  1.9748
     309     -10.21984     25.79225         15.57241  -0.80684   309   %  1.9822
     310     -10.27404     25.84665         15.57261  -0.80664   310   %  1.9896
     311     -10.32807     25.90087         15.57280  -0.80645   311   %  1.9971
     312     -10.38193     25.95493         15.57300  -0.80625   312   %  2.0046
     313     -10.43562     26.00882         15.57320  -0.80605   313   %  2.0121
     314     -10.48914     26.06254         15.57339  -0.80586   314   %  2.0197
     315     -10.54251     26.11610         15.57359  -0.80566   315   %  2.0273
     316     -10.59571     26.16949         15.57379  -0.80546   316   %  2.0349
     317     -10.64875     26.22273         15.57399  -0.80527   317   %  2.0426
     318     -10.70163     26.27581         15.57418  -0.80507   318   %  2.0503
     319     -10.75435     26.32873         15.57438  -0.80487   319   %  2.0581
     320     -10.80692     26.38149         15.57458  -0.80468   320   %  2.0658
     321     -10.85933     26.43410         15.57477  -0.80448   321   %  2.0737
     322     -10.91159     26.48656         15.57497  -0.80428   322   %  2.0815
     323     -10.96370     26.53886         15.57517  -0.80408   323   %  2.0894
     324     -11.01566     26.59102         15.57536  -0.80389   324   %  2.0973
     325     -11.06747     26.64303         15.57556  -0.80369   325   %  2.1053
     326     -11.11914     26.69489         15.57576  -0.80350   326   %  2.1133
     327     -11.17066     26.74661         15.57595  -0.80330   327   %  2.1214
     328     -11.22204     26.79819         15.57615  -0.80310   328   %  2.1294
     329     -11.27328     26.84963         15.57635  -0.80291   329   %  2.1376
     330     -11.32438     26.90092         15.57654  -0.80271   330   %  2.1457
     331     -11.37535     26.95209         15.57674  -0.80251   331   %  2.1540
     332     -11.42618     27.00311         15.57693  -0.80232   332   %  2.1622
     333     -11.47688     27.05401         15.57713  -0.80212   333   %  2.1705
     334     -11.52744     27.10477         15.57733  -0.80192   334   %  2.1788
     335     -11.57788     27.15541         15.57752  -0.80173   335   %  2.1872
     336     -11.62819     27.20591         15.57772  -0.80153   336   %  2.1957
     337     -11.67838     27.25630         15.57792  -0.80133   337   %  2.2041
     338     -11.72844     27.30655         15.57811  -0.80114   338   %  2.2126
     339     -11.77838     27.35669         15.57831  -0.80094   339   %  2.2212
     340     -11.82820     27.40671         15.57851  -0.80074   340   %  2.2298
     341     -11.87791     27.45661         15.57870  -0.80055   341   %  2.2385
     342     -11.92750     27.50640         15.57890  -0.80035   342   %  2.2472
     343     -11.97698     27.55607         15.57909  -0.80016   343   %  2.2559
     344     -12.02634     27.60563         15.57929  -0.79996   344   %  2.2647
     345     -12.07560     27.65508         15.57949  -0.79976   345   %  2.2736
     346     -12.12475     27.70443         15.57968  -0.79957   346   %  2.2825
     347     -12.17379     27.75367         15.57988  -0.79937   347   %  2.2914
     348     -12.22273     27.80281         15.58008  -0.79918   348   %  2.3004
     349     -12.27158     27.85185         15.58027  -0.79898   349   %  2.3095
     350     -12.32032     27.90079         15.58047  -0.79878   350   %  2.3186
     351     -12.36897     27.94963         15.58066  -0.79859   351   %  2.3277
     352     -12.41752     27.99838         15.58086  -0.79839   352   %  2.3369
     353     -12.46598     28.04704         15.58106  -0.79819   353   %  2.3462
     354     -12.51435     28.09560         15.58125  -0.79800   354   %  2.3555
     355     -12.56264     28.14408         15.58145  -0.79780   355   %  2.3649
     356     -12.61083     28.19248         15.58164  -0.79761   356   %  2.3743
     357     -12.65895     28.24079         15.58184  -0.79741   357   %  2.3838
     358     -12.70699     28.28902         15.58204  -0.79721   358   %  2.3934
     359     -12.75494     28.33717         15.58223  -0.79702   359   %  2.4029
     360     -12.80282     28.38525         15.58243  -0.79682   360   %  2.4126
     361     -12.85063     28.43325         15.58262  -0.79663   361   %  2.4223
     362     -12.89836     28.48118         15.58282  -0.79643   362   %  2.4321
     363     -12.94603     28.52904         15.58302  -0.79624   363   %  2.4419
     364     -12.99363     28.57684         15.58321  -0.79604   364   %  2.4518
     365     -13.04116     28.62457         15.58341  -0.79584   365   %  2.4618
     366     -13.08863     28.67223         15.58360  -0.79565   366   %  2.4718
     367     -13.13604     28.71984         15.58380  -0.79545   367   %  2.4819
     368     -13.18339     28.76739         15.58399  -0.79526   368   %  2.4920
     369     -13.23069     28.81488         15.58419  -0.79506   369   %  2.5022
     370     -13.27793     28.86232         15.58439  -0.79487   370   %  2.5125
     371     -13.32512     28.90970         15.58458  -0.79467   371   %  2.5228
     372     -13.37226     28.95704         15.58478  -0.79447   372   %  2.5332
     373     -13.41936     29.00433         15.58497  -0.79428   373   %  2.5437
     374     -13.46641     29.05158         15.58517  -0.79408   374   %  2.5542
     375     -13.51342     29.09878         15.58536  -0.79389   375   %  2.5648
     376     -13.56039     29.14594         15.58556  -0.79369   376   %  2.5755
     377     -13.60732     29.19307         15.58575  -0.79350   377   %  2.5862
     378     -13.65421     29.24016         15.58595  -0.79330   378   %  2.5970
     379     -13.70107     29.28722         15.58615  -0.79310   379   %  2.6079
     380     -13.74790     29.33424         15.58634  -0.79291   380   %  2.6189
     381     -13.79470     29.38123         15.58654  -0.79271   381   %  2.6299
     382     -13.84147     29.42820         15.58673  -0.79252   382   %  2.6410
     383     -13.88822     29.47514         15.58693  -0.79232   383   %  2.6521
     384     -13.93494     29.52206         15.58712  -0.79213   384   %  2.6634
     385     -13.98164     29.56896         15.58732  -0.79193   385   %  2.6747
     386     -14.02833     29.61584         15.58751  -0.79174   386   %  2.6861
     387     -14.07499     29.66270         15.58771  -0.79154   387   %  2.6975
     388     -14.12164     29.70955         15.58791  -0.79134   388   %  2.7090
     389     -14.16828     29.75638         15.58810  -0.79115   389   %  2.7207
     390     -14.21490     29.80320         15.58830  -0.79095   390   %  2.7323
     391     -14.26152     29.85001         15.58849  -0.79076   391   %  2.7441
     392     -14.30854     29.89773         15.58919  -0.79006   392   %  2.7561
     393     -14.33349     29.92301         15.58952  -0.78973   393   %  2.7625
     394     -14.35285     29.94260         15.58976  -0.78950   394   %  2.7675
     395     -14.37045     29.96042         15.58997  -0.78928   395   %  2.7720
     396     -14.38751     29.97767         15.59017  -0.78908   396   %  2.7764
     397     -14.40440     29.99477         15.59037  -0.78888   397   %  2.7808
     398     -14.42128     30.01184         15.59056  -0.78869   398   %  2.7852
     399     -14.43818     30.02894         15.59076  -0.78849   399   %  2.7896
     400     -14.45512     30.04608         15.59096  -0.78829   400   %  2.7940


          FINAL GEOMETRY OBTAINED                                 CHARGE
 PM7 CHARGE=0 IRC=1 LARGE=100 LET CYCLES=10000
 (irc)

   O    0.000000  0    0.000000  0    0.000000  0   0  0  0   -0.4949     400AA*
   C    1.347346  1    0.000000  0    0.000000  0   1  0  0    0.2994     400AB*
   C    1.401693  1  114.344797  1    0.000000  0   2  1  0   -0.2462     400AC*
   C    1.386586  1  118.415134  1  170.475112  1   3  2  1   -0.0894     400AD*
   C    1.398720  1  120.437431  1  358.209067  1   4  3  2   -0.2193     400AE*
   C    1.388807  1  119.965128  1    7.873885  1   5  4  3   -0.1077     400AF*
   C    1.402014  1  120.208912  1  359.649367  1   6  5  4   -0.1879     400AG*
   H    1.086202  1  119.413292  1  351.029983  1   3  2  1    0.1739     400AH*
   H    1.088910  1  119.863717  1  179.232993  1   4  3  2    0.1478     400AI*
   H    1.086172  1  119.831171  1  185.126189  1   5  4  3    0.1534     400AJ*
   C    1.494975  1  116.435576  1  149.571873  1   7  6  5   -0.2674     400AK*
   H    2.123791  1   93.440837  1  251.011510  1   7  6  5    0.3551     400AL*
   C    1.492155  1  118.014572  1  176.252802  1  11  7  6   -0.1481     400AM*
   H    1.114235  1  110.522541  1   47.623619  1  11  7  6    0.1674     400AN*
   H    1.126581  1  105.385904  1  294.834641  1  11  7  6    0.1678     400AO*
   C    1.332373  1  121.998602  1  220.880218  1  13 11  7   -0.3026     400AP*
   H    1.091501  1  116.077315  1   45.494352  1  13 11  7    0.1505     400AQ*
   H    1.079672  1  123.848398  1    2.890005  1  16 13 11    0.1491     400AR*
   H    1.079027  1  123.461042  1  182.106721  1  16 13 11    0.1451     400AS*
   O    0.997826  1  123.859536  1  241.896164  1  12  7  6   -0.4966     400AT*
   C    1.348006  1  113.307059  1  266.760573  1  20 12  7    0.2970     400AU*
   C    1.401805  1  114.342467  1  167.499164  1  21 20 12   -0.2443     400AV*
   C    1.386708  1  118.472066  1  189.383717  1  22 21 20   -0.0915     400AW*
   C    1.398413  1  120.401843  1    1.625621  1  23 22 21   -0.2180     400AX*
   C    1.389046  1  119.945700  1  352.323065  1  24 23 22   -0.1103     400AY*
   C    1.401868  1  120.348546  1    0.578397  1  25 24 23   -0.1828     400B@*
   H    1.086317  1  119.404576  1    8.734945  1  22 21 20    0.1738     400BA*
   H    1.088834  1  119.873379  1  180.617393  1  23 22 21    0.1479     400BB*
   H    1.086155  1  119.862251  1  175.019076  1  24 23 22    0.1533     400BC*
   H    1.089754  1  120.002218  1  185.163189  1  25 24 23    0.1546     400BD*
   C    1.495426  1  116.514824  1  208.385407  1  26 25 24   -0.2686     400BE*
   H    0.997993  1  113.366922  1  190.066766  1   1  2  3    0.3548     400BF*
   C    1.492474  1  118.010015  1  183.148942  1  31 26 25   -0.1462     400BG*
   H    1.126243  1  105.522103  1   64.474559  1  31 26 25    0.1681     400BH*
   H    1.114487  1  110.437518  1  311.631837  1  31 26 25    0.1684     400BI*
   C    1.332534  1  122.065447  1  140.782591  1  33 31 26   -0.3053     400BJ*
   H    1.091597  1  116.066764  1  316.077132  1  33 31 26    0.1514     400BK*
   H    1.079511  1  123.862440  1  357.072026  1  36 33 31    0.1488     400BL*
   H    1.078999  1  123.443984  1  177.821392  1  36 33 31    0.1451     400BM*
   H    1.089677  1  120.091030  1  174.773894  1   6  5  4    0.1546     400BN*


     POINT   POTENTIAL  +  ENERGY LOST   =   TOTAL      ERROR    REF%   MOVEMENT
     401     -14.47212     30.06328         15.59116  -0.78809   401   %  2.7985
     402     -14.48917     30.08053         15.59135  -0.78790   402   %  2.8030
     403     -14.50628     30.09783         15.59155  -0.78770   403   %  2.8075
     404     -14.52345     30.11519         15.59175  -0.78750   404   %  2.8120
     405     -14.54067     30.13262         15.59194  -0.78731   405   %  2.8166
     406     -14.55795     30.15010         15.59214  -0.78711   406   %  2.8211
     407     -14.57530     30.16764         15.59234  -0.78691   407   %  2.8258
     408     -14.59270     30.18524         15.59253  -0.78672   408   %  2.8304
     409     -14.61017     30.20290         15.59273  -0.78652   409   %  2.8351
     410     -14.62769     30.22062         15.59293  -0.78632   410   %  2.8397
     411     -14.64528     30.23841         15.59313  -0.78613   411   %  2.8445
     412     -14.66293     30.25625         15.59332  -0.78593   412   %  2.8492
     413     -14.68065     30.27417         15.59352  -0.78573   413   %  2.8540
     414     -14.69843     30.29214         15.59372  -0.78553   414   %  2.8588
     415     -14.71627     30.31019         15.59391  -0.78534   415   %  2.8636
     416     -14.73418     30.32829         15.59411  -0.78514   416   %  2.8685
     417     -14.75216     30.34647         15.59431  -0.78494   417   %  2.8734
     418     -14.77021     30.36471         15.59450  -0.78475   418   %  2.8783
     419     -14.78832     30.38302         15.59470  -0.78455   419   %  2.8833
     420     -14.80651     30.40140         15.59490  -0.78435   420   %  2.8883
     421     -14.82476     30.41985         15.59509  -0.78416   421   %  2.8933
     422     -14.84308     30.43837         15.59529  -0.78396   422   %  2.8984
     423     -14.86148     30.45696         15.59549  -0.78376   423   %  2.9034
     424     -14.87994     30.47563         15.59568  -0.78357   424   %  2.9086
     425     -14.89848     30.49436         15.59588  -0.78337   425   %  2.9137
     426     -14.91710     30.51317         15.59608  -0.78317   426   %  2.9189
     427     -14.93579     30.53206         15.59627  -0.78298   427   %  2.9241
     428     -14.95455     30.55102         15.59647  -0.78278   428   %  2.9294
     429     -14.97339     30.57006         15.59667  -0.78258   429   %  2.9346
     430     -14.99231     30.58918         15.59686  -0.78239   430   %  2.9400
     431     -15.01131     30.60837         15.59706  -0.78219   431   %  2.9453
     432     -15.03053     30.62798         15.59746  -0.78180   432   %  2.9508
     433     -15.04411     30.64184         15.59773  -0.78152   433   %  2.9547
     434     -15.05569     30.65364         15.59796  -0.78129   434   %  2.9580
     435     -15.06647     30.66464         15.59817  -0.78108   435   %  2.9611
     436     -15.07692     30.67530         15.59837  -0.78088   436   %  2.9641
     437     -15.08725     30.68582         15.59857  -0.78068   437   %  2.9670
     438     -15.09754     30.69631         15.59877  -0.78048   438   %  2.9700
     439     -15.10782     30.70680         15.59897  -0.78028   439   %  2.9729
     440     -15.11813     30.71730         15.59917  -0.78008   440   %  2.9759
     441     -15.12846     30.72782         15.59937  -0.77988   441   %  2.9789
     442     -15.13881     30.73838         15.59957  -0.77969   442   %  2.9819
     443     -15.14920     30.74896         15.59976  -0.77949   443   %  2.9849
     444     -15.15962     30.75958         15.59996  -0.77929   444   %  2.9879
     445     -15.17007     30.77023         15.60016  -0.77909   445   %  2.9909
     446     -15.18055     30.78091         15.60036  -0.77889   446   %  2.9940
     447     -15.19107     30.79162         15.60055  -0.77870   447   %  2.9970
     448     -15.20162     30.80237         15.60075  -0.77850   448   %  3.0001
     449     -15.21220     30.81315         15.60095  -0.77830   449   %  3.0032
     450     -15.22282     30.82396         15.60115  -0.77810   450   %  3.0063
     451     -15.23347     30.83481         15.60134  -0.77791   451   %  3.0094
     452     -15.24415     30.84569         15.60154  -0.77771   452   %  3.0126
     453     -15.25487     30.85661         15.60174  -0.77751   453   %  3.0157
     454     -15.26563     30.86757         15.60194  -0.77731   454   %  3.0189
     455     -15.27642     30.87856         15.60214  -0.77712   455   %  3.0220
     456     -15.28725     30.88958         15.60233  -0.77692   456   %  3.0252
     457     -15.29811     30.90064         15.60253  -0.77672   457   %  3.0284
     458     -15.30901     30.91174         15.60273  -0.77652   458   %  3.0317
     459     -15.31995     30.92287         15.60293  -0.77632   459   %  3.0349
     460     -15.33108     30.93404         15.60296  -0.77629   460   %  3.0381
     461     -15.34681     30.94980         15.60299  -0.77626   461   %  3.0427
     462     -15.36897     30.97200         15.60304  -0.77621   462   %  3.0492
     463     -15.40011     31.00324         15.60313  -0.77612   463   %  3.0584
     464     -15.44381     31.04710         15.60330  -0.77595   464   %  3.0713
     465     -15.49057     31.09407         15.60350  -0.77575   465   %  3.0852
     466     -15.53609     31.13979         15.60371  -0.77554   466   %  3.0988
     467     -15.58067     31.18458         15.60391  -0.77535   467   %  3.1122
     468     -15.62507     31.22917         15.60410  -0.77515   468   %  3.1256
     469     -15.66952     31.27382         15.60430  -0.77495   469   %  3.1391
     470     -15.71401     31.31850         15.60449  -0.77476   470   %  3.1527
     471     -15.75848     31.36317         15.60469  -0.77456   471   %  3.1664
     472     -15.80293     31.40782         15.60488  -0.77437   472   %  3.1801
     473     -15.84736     31.45244         15.60508  -0.77417   473   %  3.1939
     474     -15.89176     31.49704         15.60528  -0.77397   474   %  3.2078
     475     -15.93616     31.54163         15.60547  -0.77378   475   %  3.2218
     476     -15.98054     31.58621         15.60567  -0.77358   476   %  3.2358
     477     -16.02491     31.63077         15.60587  -0.77339   477   %  3.2499
     478     -16.06927     31.67533         15.60606  -0.77319   478   %  3.2640
     479     -16.11362     31.71987         15.60626  -0.77299   479   %  3.2783
     480     -16.15796     31.76441         15.60645  -0.77280   480   %  3.2926
     481     -16.20230     31.80895         15.60665  -0.77260   481   %  3.3070
     482     -16.24664     31.85348         15.60685  -0.77240   482   %  3.3214
     483     -16.29097     31.89801         15.60704  -0.77221   483   %  3.3360
     484     -16.33530     31.94254         15.60724  -0.77201   484   %  3.3506
     485     -16.38014     31.98707         15.60693  -0.77232   485   %  3.3653
     486     -16.41598     32.02266         15.60667  -0.77258   486   %  3.3771
     487     -16.44732     32.05376         15.60644  -0.77281   487   %  3.3874
     488     -16.47608     32.08230         15.60622  -0.77303   488   %  3.3970
     489     -16.50339     32.10940         15.60601  -0.77324   489   %  3.4061
     490     -16.52995     32.13576         15.60581  -0.77344   490   %  3.4149
     491     -16.55621     32.16183         15.60561  -0.77364   491   %  3.4237
     492     -16.58247     32.18788         15.60542  -0.77383   492   %  3.4326
     493     -16.60890     32.21413         15.60522  -0.77403   493   %  3.4415
     494     -16.63567     32.24070         15.60503  -0.77422   494   %  3.4505
     495     -16.66286     32.26770         15.60484  -0.77441   495   %  3.4598
     496     -16.69056     32.29521         15.60465  -0.77460   496   %  3.4692
     497     -16.71884     32.32330         15.60446  -0.77479   497   %  3.4789
     498     -16.74777     32.35205         15.60427  -0.77498   498   %  3.4888
     499     -16.77743     32.38152         15.60409  -0.77516   499   %  3.4990
     500     -16.80789     32.41179         15.60390  -0.77535   500   %  3.5096


          FINAL GEOMETRY OBTAINED                                 CHARGE
 PM7 CHARGE=0 IRC=1 LARGE=100 LET CYCLES=10000
 (irc)

   O    0.000000  0    0.000000  0    0.000000  0   0  0  0   -0.4940     500AA*
   C    1.349468  1    0.000000  0    0.000000  0   1  0  0    0.2926     500AB*
   C    1.401935  1  114.162539  1    0.000000  0   2  1  0   -0.2432     500AC*
   C    1.386822  1  118.575173  1  170.736333  1   3  2  1   -0.0931     500AD*
   C    1.398481  1  120.321669  1  356.803508  1   4  3  2   -0.2159     500AE*
   C    1.388942  1  119.848919  1    8.878240  1   5  4  3   -0.1127     500AF*
   C    1.402285  1  120.298795  1  359.724362  1   6  5  4   -0.1761     500AG*
   H    1.086314  1  119.358099  1  351.058918  1   3  2  1    0.1733     500AH*
   H    1.088704  1  119.901326  1  178.189420  1   4  3  2    0.1478     500AI*
   H    1.086096  1  119.897644  1  186.180671  1   5  4  3    0.1532     500AJ*
   C    1.494113  1  116.624936  1  152.003296  1   7  6  5   -0.2704     500AK*
   H    2.200476  1   92.210989  1  251.774535  1   7  6  5    0.3529     500AL*
   C    1.492316  1  118.075757  1  176.211134  1  11  7  6   -0.1479     500AM*
   H    1.115189  1  110.210664  1   48.095219  1  11  7  6    0.1689     500AN*
   H    1.125859  1  105.803214  1  295.237876  1  11  7  6    0.1684     500AO*
   C    1.332492  1  121.810048  1  219.472225  1  13 11  7   -0.3022     500AP*
   H    1.091354  1  116.177862  1   44.231684  1  13 11  7    0.1498     500AQ*
   H    1.079789  1  123.809305  1    3.015319  1  16 13 11    0.1492     500AR*
   H    1.078949  1  123.510881  1  182.262122  1  16 13 11    0.1452     500AS*
   O    0.997392  1  120.857410  1  241.219770  1  12  7  6   -0.4951     500AT*
   C    1.350044  1  113.294396  1  266.102990  1  20 12  7    0.2906     500AU*
   C    1.402067  1  114.114407  1  169.060599  1  21 20 12   -0.2416     500AV*
   C    1.386833  1  118.623996  1  189.128127  1  22 21 20   -0.0948     500AW*
   C    1.398247  1  120.292389  1    2.945269  1  23 22 21   -0.2150     500AX*
   C    1.389147  1  119.845145  1  351.402045  1  24 23 22   -0.1146     500AY*
   C    1.402242  1  120.431112  1    0.479353  1  25 24 23   -0.1721     500B@*
   H    1.086432  1  119.346712  1    8.701045  1  22 21 20    0.1732     500BA*
   H    1.088649  1  119.910281  1  181.596718  1  23 22 21    0.1479     500BB*
   H    1.086089  1  119.915878  1  174.030800  1  24 23 22    0.1531     500BC*
   H    1.089681  1  119.962377  1  184.746062  1  25 24 23    0.1544     500BD*
   C    1.494669  1  116.685707  1  206.119321  1  26 25 24   -0.2715     500BE*
   H    0.997471  1  113.371470  1  188.794288  1   1  2  3    0.3528     500BF*
   C    1.492642  1  118.079528  1  183.152107  1  31 26 25   -0.1464     500BG*
   H    1.125518  1  105.931575  1   64.022234  1  31 26 25    0.1686     500BH*
   H    1.115443  1  110.123696  1  311.127496  1  31 26 25    0.1699     500BI*
   C    1.332647  1  121.890125  1  142.014940  1  33 31 26   -0.3044     500BJ*
   H    1.091467  1  116.159353  1  317.178849  1  33 31 26    0.1505     500BK*
   H    1.079644  1  123.822510  1  356.963169  1  36 33 31    0.1490     500BL*
   H    1.078935  1  123.494237  1  177.686428  1  36 33 31    0.1451     500BM*
   H    1.089599  1  120.045799  1  175.170080  1   6  5  4    0.1544     500BN*


     POINT   POTENTIAL  +  ENERGY LOST   =   TOTAL      ERROR    REF%   MOVEMENT
     501     -16.83923     32.44295         15.60371  -0.77554   501   %  3.5204
     502     -16.87156     32.47509         15.60353  -0.77572   502   %  3.5317
     503     -16.90499     32.50834         15.60335  -0.77590   503   %  3.5434
     504     -16.93966     32.54283         15.60317  -0.77609   504   %  3.5556
     505     -16.97577     32.57875         15.60298  -0.77627   505   %  3.5684
     506     -17.01353     32.61633         15.60281  -0.77644   506   %  3.5818
     507     -17.05326     32.65589         15.60263  -0.77662   507   %  3.5960
     508     -17.09539     32.69785         15.60246  -0.77679   508   %  3.6111
     509     -17.14084     32.74327         15.60243  -0.77682   509   %  3.6276
     510     -17.20444     32.80689         15.60245  -0.77680   510   %  3.6510
     511     -17.29315     32.89581         15.60266  -0.77659   511   %  3.6839
     512     -17.37772     32.98066         15.60294  -0.77631   512   %  3.7156
     513     -17.44884     33.05197         15.60314  -0.77611   513   %  3.7426
     514     -17.51891     33.12223         15.60331  -0.77594   514   %  3.7695
     515     -17.59204     33.19556         15.60352  -0.77573   515   %  3.7978
     516     -17.66389     33.26762         15.60373  -0.77552   516   %  3.8258
     517     -17.73290     33.33683         15.60393  -0.77532   517   %  3.8531
     518     -17.80056     33.40469         15.60413  -0.77512   518   %  3.8800
     519     -17.86770     33.47203         15.60433  -0.77492   519   %  3.9070
     520     -17.93397     33.53850         15.60453  -0.77472   520   %  3.9339
     521     -17.99910     33.60383         15.60473  -0.77452   521   %  3.9605
     522     -18.06323     33.66816         15.60493  -0.77432   522   %  3.9869
     523     -18.12653     33.73166         15.60513  -0.77412   523   %  4.0132
     524     -18.18905     33.79438         15.60533  -0.77392   524   %  4.0394
     525     -18.25077     33.85630         15.60553  -0.77372   525   %  4.0655
     526     -18.31173     33.91746         15.60573  -0.77352   526   %  4.0914
     527     -18.37197     33.97790         15.60593  -0.77332   527   %  4.1173
     528     -18.43152     34.03766         15.60613  -0.77312   528   %  4.1430
     529     -18.49043     34.09676         15.60633  -0.77292   529   %  4.1686
[...]
   H    1.086713  1  119.910897  1  179.755965  1  24 23 22    0.1531    4500BC*
   H    1.090128  1  119.408794  1  180.306774  1  25 24 23    0.1523    4500BD*
   C    1.495181  1  119.766705  1  178.281251  1  26 25 24   -0.3018    4500BE*
   H    0.992847  1  113.322554  1  185.803835  1   1  2  3    0.3469    4500BF*
   C    1.496461  1  112.997780  1  133.993488  1  31 26 25   -0.1110    4500BG*
   H    1.115934  1  110.617274  1   12.325594  1  31 26 25    0.1697    4500BH*
   H    1.117140  1  109.273010  1  258.859356  1  31 26 25    0.1791    4500BI*
   C    1.333217  1  122.665634  1  130.187420  1  33 31 26   -0.3467    4500BJ*
   H    1.090410  1  114.830617  1  309.743324  1  33 31 26    0.1521    4500BK*
   H    1.080806  1  124.010539  1  359.635753  1  36 33 31    0.1536    4500BL*
   H    1.078895  1  123.492484  1  179.001987  1  36 33 31    0.1496    4500BM*
   H    1.090144  1  119.420228  1  179.706400  1   6  5  4    0.1523    4500BN*


     POINT   POTENTIAL  +  ENERGY LOST   =   TOTAL      ERROR    REF%   MOVEMENT
    4502     -36.80443     56.92032         20.11589   3.73663  4501   % 29.4694
    4503     -36.80449     56.92038         20.11589   3.73664  4502   % 29.4704
    4504     -36.80456     56.92048         20.11592   3.73666  4503   % 29.4720
    4505     -36.80412     56.92077         20.11665   3.73740  4504   % 29.4734
    4506     -36.79790     56.92592         20.12802   3.74877  4505   % 29.4771
    4507     -36.80361     56.93400         20.13039   3.75114  4506   % 29.4760
    4508     -36.80397     56.93440         20.13042   3.75117  4507   % 29.4759
    4509     -36.80431     56.93478         20.13047   3.75122  4508   % 29.4758
    4510     -36.80457     56.93510         20.13052   3.75127  4509   % 29.4757
    4511     -36.80472     56.93529         20.13057   3.75132  4510   % 29.4757
    4512     -36.80478     56.93537         20.13059   3.75134  4511   % 29.4757
    4513     -36.80480     56.93540         20.13060   3.75135  4512   % 29.4759
    4514     -36.80481     56.93542         20.13060   3.75135  4513   % 29.4762
    4515     -36.80484     56.93545         20.13060   3.75135  4514   % 29.4767
    4516     -36.80488     56.93549         20.13061   3.75136  4515   % 29.4774
    4517     -36.80493     56.93555         20.13061   3.75136  4516   % 29.4783
    4518     -36.80500     56.93563         20.13062   3.75137  4517   % 29.4796
    4519     -36.80511     56.93574         20.13064   3.75139  4518   % 29.4815
    4520     -36.80484     56.93600         20.13116   3.75191  4519   % 29.4835
    4521     -36.79101     56.94187         20.15086   3.77161  4520   % 29.4888
    4522     -36.80393     56.96147         20.15754   3.77829  4521   % 29.4869
    4523     -36.80425     56.96181         20.15756   3.77831  4522   % 29.4868
    4524     -36.80459     56.96218         20.15759   3.77834  4523   % 29.4867
    4525     -36.80492     56.96255         20.15763   3.77838  4524   % 29.4866
    4526     -36.80517     56.96285         20.15768   3.77843  4525   % 29.4865
    4527     -36.80532     56.96305         20.15772   3.77847  4526   % 29.4864
    4528     -36.80538     56.96313         20.15775   3.77850  4527   % 29.4864
    4529     -36.80540     56.96315         20.15776   3.77850  4528   % 29.4866
    4530     -36.80542     56.96317         20.15776   3.77851  4529   % 29.4869
    4531     -36.80544     56.96320         20.15776   3.77851  4530   % 29.4874
    4532     -36.80548     56.96324         20.15776   3.77851  4531   % 29.4880
    4533     -36.80553     56.96330         20.15777   3.77852  4532   % 29.4889
    4534     -36.80560     56.96338         20.15778   3.77853  4533   % 29.4902
    4535     -36.80568     56.96349         20.15781   3.77856  4534   % 29.4921
    4536     -36.80429     56.96400         20.15972   3.78047  4535   % 29.4936
    4537     -36.79616     56.97500         20.17884   3.79959  4536   % 29.4980
    4538     -36.80184     56.98190         20.18005   3.80080  4537   % 29.4972
    4539     -36.80293     56.98307         20.18013   3.80088  4538   % 29.4970
    4540     -36.80402     56.98428         20.18026   3.80101  4539   % 29.4968
    4541     -36.80488     56.98526         20.18038   3.80113  4540   % 29.4965
    4542     -36.80545     56.98594         20.18049   3.80124  4541   % 29.4963
    4543     -36.80577     56.98635         20.18058   3.80133  4542   % 29.4962
    4544     -36.80590     56.98654         20.18064   3.80139  4543   % 29.4961
    4545     -36.80593     56.98658         20.18065   3.80140  4544   % 29.4963
    4546     -36.80595     56.98660         20.18065   3.80140  4545   % 29.4965
    4547     -36.80597     56.98663         20.18066   3.80141  4546   % 29.4970
    4548     -36.80601     56.98667         20.18066   3.80141  4547   % 29.4976
    4549     -36.80605     56.98672         20.18067   3.80142  4548   % 29.4984
    4550     -36.80612     56.98679         20.18068   3.80142  4549   % 29.4996
    4551     -36.80613     56.98693         20.18080   3.80155  4550   % 29.5015
    4552     -36.80091     56.98854         20.18764   3.80839  4551   % 29.5015
    4553     -36.80450     57.00581         20.20130   3.82205  4552   % 29.5050
    4554     -36.80514     57.00651         20.20137   3.82212  4553   % 29.5048
    4555     -36.80571     57.00716         20.20145   3.82220  4554   % 29.5047
    4556     -36.80612     57.00766         20.20155   3.82230  4555   % 29.5045
    4557     -36.80632     57.00794         20.20162   3.82237  4556   % 29.5044
    4558     -36.80638     57.00803         20.20165   3.82240  4557   % 29.5044
    4559     -36.80640     57.00805         20.20165   3.82240  4558   % 29.5046
    4560     -36.80642     57.00807         20.20165   3.82240  4559   % 29.5050
    4561     -36.80644     57.00810         20.20166   3.82241  4560   % 29.5055
    4562     -36.80648     57.00815         20.20166   3.82241  4561   % 29.5062
    4563     -36.80654     57.00821         20.20167   3.82242  4562   % 29.5072
    4564     -36.80661     57.00830         20.20169   3.82244  4563   % 29.5088
    4565     -36.80607     57.00862         20.20255   3.82330  4564   % 29.5100
    4566     -36.80006     57.01426         20.21420   3.83495  4565   % 29.5138
    4567     -36.80539     57.02156         20.21617   3.83692  4566   % 29.5128
    4568     -36.80584     57.02205         20.21621   3.83696  4567   % 29.5126
    4569     -36.80625     57.02252         20.21627   3.83702  4568   % 29.5125
    4570     -36.80657     57.02290         20.21633   3.83708  4569   % 29.5124
    4571     -36.80675     57.02314         20.21639   3.83714  4570   % 29.5123
    4572     -36.80681     57.02323         20.21641   3.83716  4571   % 29.5123
    4573     -36.80683     57.02325         20.21642   3.83717  4572   % 29.5125
    4574     -36.80685     57.02327         20.21642   3.83717  4573   % 29.5128
    4575     -36.80688     57.02330         20.21643   3.83718  4574   % 29.5133
    4576     -36.80691     57.02334         20.21643   3.83718  4575   % 29.5139
    4577     -36.80696     57.02340         20.21644   3.83718  4576   % 29.5149
    4578     -36.80703     57.02348         20.21644   3.83719  4577   % 29.5161
    4579     -36.80713     57.02359         20.21645   3.83720  4578   % 29.5180
    4580     -36.80719     57.02377         20.21657   3.83732  4579   % 29.5202
    4581     -36.79115     57.02658         20.23544   3.85618  4580   % 29.5279
    4582     -36.80379     57.07454         20.27076   3.89151  4581   % 29.5225
    4583     -36.80457     57.07538         20.27080   3.89155  4582   % 29.5227
    4584     -36.80543     57.07631         20.27088   3.89163  4583   % 29.5230
    4585     -36.80625     57.07724         20.27099   3.89174  4584   % 29.5233
    4586     -36.80690     57.07800         20.27111   3.89186  4585   % 29.5237
    4587     -36.80728     57.07848         20.27121   3.89196  4586   % 29.5241
    4588     -36.80746     57.07874         20.27128   3.89203  4587   % 29.5245
    4589     -36.80751     57.07882         20.27131   3.89206  4588   % 29.5248
    4590     -36.80753     57.07884         20.27131   3.89206  4589   % 29.5252
    4591     -36.80755     57.07886         20.27132   3.89207  4590   % 29.5255
    4592     -36.80758     57.07890         20.27132   3.89207  4591   % 29.5260
    4593     -36.80762     57.07894         20.27132   3.89207  4592   % 29.5267
    4594     -36.80767     57.07900         20.27133   3.89208  4593   % 29.5278
    4595     -36.80773     57.07910         20.27137   3.89212  4594   % 29.5291
    4596     -36.80659     57.07959         20.27299   3.89374  4595   % 29.5323
    4597     -36.80236     57.08743         20.28507   3.90582  4596   % 29.5299
    4598     -36.80592     57.09189         20.28597   3.90672  4597   % 29.5308
    4599     -36.80661     57.09265         20.28604   3.90679  4598   % 29.5311
    4600     -36.80721     57.09336         20.28614   3.90689  4599   % 29.5314
    4601     -36.80765     57.09390         20.28625   3.90700  4600   % 29.5318


          FINAL GEOMETRY OBTAINED                                 CHARGE
 PM7 CHARGE=0 IRC=1 LARGE=100 LET CYCLES=10000
 (irc)

   O    0.000000  0    0.000000  0    0.000000  0   0  0  0   -0.4917    4600AA*
   C    1.355717  1    0.000000  0    0.000000  0   1  0  0    0.2674    4600AB*
   C    1.400845  1  113.613219  1    0.000000  0   2  1  0   -0.2507    4600AC*
   C    1.388545  1  118.824501  1  178.497807  1   3  2  1   -0.0981    4600AD*
   C    1.395211  1  120.121724  1    0.098515  1   4  3  2   -0.2136    4600AE*
   C    1.392579  1  120.248281  1    0.507921  1   5  4  3   -0.1037    4600AF*
   C    1.396497  1  121.084111  1  359.519347  1   6  5  4   -0.1294    4600AG*
   H    1.087123  1  119.477220  1  358.170107  1   3  2  1    0.1736    4600AH*
   H    1.088930  1  119.896663  1  180.034830  1   4  3  2    0.1492    4600AI*
   H    1.086822  1  119.897639  1  180.257232  1   5  4  3    0.1531    4600AJ*
   C    1.495093  1  119.746151  1  181.721127  1   7  6  5   -0.3018    4600AK*
   H    3.141912  1   92.502316  1  273.285106  1   7  6  5    0.3469    4600AL*
   C    1.496363  1  112.995312  1  226.008151  1  11  7  6   -0.1109    4600AM*
   H    1.117094  1  109.286722  1  101.151652  1  11  7  6    0.1792    4600AN*
   H    1.115913  1  110.631494  1  347.689744  1  11  7  6    0.1697    4600AO*
   C    1.333209  1  122.662998  1  229.977809  1  13 11  7   -0.3468    4600AP*
   H    1.090474  1  114.841288  1   50.417190  1  13 11  7    0.1521    4600AQ*
   H    1.080436  1  124.023604  1    0.328445  1  16 13 11    0.1536    4600AR*
   H    1.078483  1  123.485224  1  180.988140  1  16 13 11    0.1496    4600AS*
   O    0.992793  1   94.219020  1  240.288634  1  12  7  6   -0.4917    4600AT*
   C    1.355707  1  113.318411  1  267.082451  1  20 12  7    0.2674    4600AU*
   C    1.400755  1  113.624698  1  174.255012  1  21 20 12   -0.2508    4600AV*
   C    1.388566  1  118.820116  1  181.487185  1  22 21 20   -0.0981    4600AW*
   C    1.395175  1  120.139487  1  359.890860  1  23 22 21   -0.2135    4600AX*
   C    1.392704  1  120.232008  1  359.498250  1  24 23 22   -0.1036    4600AY*
   C    1.396475  1  121.082313  1    0.483978  1  25 24 23   -0.1294    4600B@*
   H    1.087068  1  119.500101  1    1.830421  1  22 21 20    0.1736    4600BA*
   H    1.088859  1  119.883061  1  179.967203  1  23 22 21    0.1492    4600BB*
   H    1.086695  1  119.910915  1  179.758238  1  24 23 22    0.1531    4600BC*
   H    1.090119  1  119.410013  1  180.304945  1  25 24 23    0.1523    4600BD*
   C    1.495175  1  119.778011  1  178.280900  1  26 25 24   -0.3018    4600BE*
   H    0.992811  1  113.318655  1  185.723107  1   1  2  3    0.3469    4600BF*
   C    1.496469  1  112.983125  1  133.863038  1  31 26 25   -0.1110    4600BG*
   H    1.115900  1  110.621569  1   12.196043  1  31 26 25    0.1697    4600BH*
   H    1.117104  1  109.276247  1  258.726440  1  31 26 25    0.1791    4600BI*
   C    1.333258  1  122.668167  1  130.217712  1  33 31 26   -0.3467    4600BJ*
   H    1.090452  1  114.829198  1  309.775380  1  33 31 26    0.1521    4600BK*
   H    1.080286  1  124.009266  1  359.640896  1  36 33 31    0.1536    4600BL*
   H    1.078302  1  123.488867  1  179.004847  1  36 33 31    0.1496    4600BM*
   H    1.090168  1  119.421502  1  179.708808  1   6  5  4    0.1523    4600BN*


     POINT   POTENTIAL  +  ENERGY LOST   =   TOTAL      ERROR    REF%   MOVEMENT
    4602     -36.80786     57.09419         20.28633   3.90707  4601   % 29.5322
    4603     -36.80793     57.09429         20.28636   3.90711  4602   % 29.5325
    4604     -36.80795     57.09432         20.28637   3.90712  4603   % 29.5328
    4605     -36.80797     57.09434         20.28637   3.90712  4604   % 29.5332
    4606     -36.80799     57.09437         20.28637   3.90712  4605   % 29.5337
    4607     -36.80803     57.09441         20.28638   3.90713  4606   % 29.5343
    4608     -36.80808     57.09447         20.28638   3.90713  4607   % 29.5353
    4609     -36.80815     57.09455         20.28640   3.90715  4608   % 29.5366
    4610     -36.80811     57.09471         20.28660   3.90734  4609   % 29.5389
    4611     -36.80066     57.09721         20.29655   3.91730  4610   % 29.5381
    4612     -36.80811     57.11555         20.30744   3.92819  4611   % 29.5412
    4613     -36.80819     57.11563         20.30744   3.92819  4612   % 29.5412
    4614     -36.80827     57.11572         20.30745   3.92820  4613   % 29.5411
    4615     -36.80834     57.11580         20.30746   3.92821  4614   % 29.5411
    4616     -36.80838     57.11585         20.30747   3.92822  4615   % 29.5411
    4617     -36.80840     57.11588         20.30748   3.92823  4616   % 29.5412
    4618     -36.80841     57.11590         20.30748   3.92823  4617   % 29.5414
    4619     -36.80843     57.11591         20.30748   3.92823  4618   % 29.5417
    4620     -36.80845     57.11594         20.30749   3.92824  4619   % 29.5421
    4621     -36.80848     57.11597         20.30749   3.92824  4620   % 29.5427
    4622     -36.80853     57.11602         20.30750   3.92824  4621   % 29.5435
    4623     -36.80859     57.11610         20.30750   3.92825  4622   % 29.5447
    4624     -36.80867     57.11620         20.30753   3.92828  4623   % 29.5464
    4625     -36.80795     57.11655         20.30859   3.92934  4624   % 29.5479
    4626     -36.79860     57.12429         20.32569   3.94644  4625   % 29.5524
    4627     -36.80607     57.13408         20.32801   3.94876  4626   % 29.5512
    4628     -36.80681     57.13487         20.32806   3.94881  4627   % 29.5511
    4629     -36.80755     57.13569         20.32814   3.94889  4628   % 29.5509
    4630     -36.80819     57.13644         20.32824   3.94899  4629   % 29.5506
    4631     -36.80863     57.13698         20.32835   3.94910  4630   % 29.5505
    4632     -36.80884     57.13726         20.32842   3.94917  4631   % 29.5504
    4633     -36.80890     57.13735         20.32845   3.94920  4632   % 29.5504
    4634     -36.80891     57.13737         20.32845   3.94920  4633   % 29.5506
    4635     -36.80893     57.13739         20.32846   3.94921  4634   % 29.5509
    4636     -36.80896     57.13742         20.32846   3.94921  4635   % 29.5514
    4637     -36.80900     57.13746         20.32846   3.94921  4636   % 29.5522
    4638     -36.80905     57.13752         20.32847   3.94922  4637   % 29.5531
    4639     -36.80911     57.13762         20.32851   3.94926  4638   % 29.5547
    4640     -36.80814     57.13806         20.32991   3.95066  4639   % 29.5557
    4641     -36.80338     57.14540         20.34202   3.96277  4640   % 29.5594
    4642     -36.80732     57.15038         20.34306   3.96381  4641   % 29.5586
    4643     -36.80798     57.15111         20.34313   3.96388  4642   % 29.5584
    4644     -36.80858     57.15180         20.34322   3.96397  4643   % 29.5582
    4645     -36.80901     57.15232         20.34331   3.96406  4644   % 29.5581
    4646     -36.80923     57.15262         20.34339   3.96414  4645   % 29.5580
    4647     -36.80930     57.15272         20.34342   3.96417  4646   % 29.5580
    4648     -36.80932     57.15275         20.34343   3.96418  4647   % 29.5582
    4649     -36.80934     57.15277         20.34343   3.96418  4648   % 29.5585
    4650     -36.80936     57.15280         20.34343   3.96418  4649   % 29.5590
    4651     -36.80940     57.15284         20.34344   3.96419  4650   % 29.5597
    4652     -36.80945     57.15289         20.34344   3.96419  4651   % 29.5606
    4653     -36.80952     57.15298         20.34346   3.96421  4652   % 29.5620
    4654     -36.80935     57.15318         20.34382   3.96457  4653   % 29.5634
    4655     -36.80204     57.15674         20.35470   3.97545  4654   % 29.5675
    4656     -36.80952     57.16962         20.36010   3.98085  4655   % 29.5658
    4657     -36.80958     57.16968         20.36010   3.98085  4656   % 29.5658
    4658     -36.80964     57.16975         20.36011   3.98086  4657   % 29.5658
    4659     -36.80969     57.16980         20.36012   3.98087  4658   % 29.5658
    4660     -36.80972     57.16984         20.36013   3.98087  4659   % 29.5658
    4661     -36.80973     57.16986         20.36013   3.98088  4660   % 29.5659
    4662     -36.80975     57.16988         20.36013   3.98088  4661   % 29.5661
    4663     -36.80976     57.16990         20.36013   3.98088  4662   % 29.5664
    4664     -36.80979     57.16992         20.36014   3.98089  4663   % 29.5668
    4665     -36.80982     57.16996         20.36014   3.98089  4664   % 29.5674
    4666     -36.80986     57.17001         20.36014   3.98089  4665   % 29.5682
    4667     -36.80992     57.17008         20.36015   3.98090  4666   % 29.5694
    4668     -36.81001     57.17018         20.36017   3.98092  4667   % 29.5711
    4669     -36.80956     57.17045         20.36089   3.98164  4668   % 29.5727
    4670     -36.79843     57.17694         20.37851   3.99926  4669   % 29.5774
    4671     -36.80815     57.19062         20.38247   4.00321  4670   % 29.5759
    4672     -36.80866     57.19116         20.38250   4.00325  4671   % 29.5758
    4673     -36.80918     57.19174         20.38255   4.00330  4672   % 29.5756
    4674     -36.80966     57.19228         20.38262   4.00337  4673   % 29.5755
    4675     -36.81000     57.19270         20.38270   4.00345  4674   % 29.5753
    4676     -36.81018     57.19294         20.38276   4.00351  4675   % 29.5752
    4677     -36.81024     57.19302         20.38278   4.00353  4676   % 29.5753
    4678     -36.81025     57.19304         20.38279   4.00354  4677   % 29.5755
    4679     -36.81027     57.19306         20.38279   4.00354  4678   % 29.5758
    4680     -36.81029     57.19309         20.38279   4.00354  4679   % 29.5763
    4681     -36.81033     57.19313         20.38280   4.00355  4680   % 29.5770
    4682     -36.81038     57.19318         20.38280   4.00355  4681   % 29.5779
    4683     -36.81045     57.19326         20.38282   4.00357  4682   % 29.5793
    4684     -36.81034     57.19344         20.38310   4.00385  4683   % 29.5807
    4685     -36.80269     57.19655         20.39386   4.01461  4684   % 29.5850
    4686     -36.81064     57.21188         20.40124   4.02199  4685   % 29.5830


 IRC CALCULATION COMPLETE 

 **********************
 *                    *
 * JOB ENDED NORMALLY *
 *                    *
 **********************



 TOTAL JOB TIME:           153.31 SECONDS

 == MOPAC DONE ==
