 *******************************************************************************
 ** Cite this program as: MOPAC2016, Version: 22.066W, James J. P. Stewart,   **
 **                           web-site: HTTP://OpenMOPAC.net.                 **
 *******************************************************************************
 **                                                                           **
 **                                MOPAC2016                                  **
 **                                                                           **
 *******************************************************************************

                              INDO CALCULATION RESULTS

 *******************************************************************************
 *  CALCULATION DONE:                                Sat May 14 21:01:36 2022  *
 *  INDO       - The INDO Hamiltonian to be used
 *  C.I.=6     - 6 M.O.S TO BE USED IN C.I.
 *  EPS=20.7   - USE ANDREAS KLAMT'S COSMO IMPLICIT SOLVATION MODEL
 *  T=         - A TIME OF 172800.0 SECONDS REQUESTED
 *  DUMP=N     - RESTART FILE WRITTEN EVERY 7200.0 SECONDS REQUESTED
 *******************************************************************************
INDO C.I.=6 EPS=20.7


  ATOM    CHEMICAL      BOND LENGTH      BOND ANGLE     TWIST ANGLE 
 NUMBER    SYMBOL       (ANGSTROMS)      (DEGREES)       (DEGREES) 
   (I)                     NA:I           NB:NA:I       NC:NB:NA:I       NA    NB    NC 
     1       C          0.00000000       0.0000000       0.0000000        0     0     0
     2       C          1.50494800  *    0.0000000       0.0000000        1     0     0
     3       O          1.22975900  *  121.5654430  *    0.0000000        1     2     0
     4       C          1.50494800  *  116.8089720  * -177.2591100  *     1     2     3
     5       H          1.09297000  *  109.7214080  *  -51.7345210  *     4     1     2
     6       H          1.09352800  *  109.6441020  * -170.7287890  *     4     1     2
     7       H          1.09248800  *  109.5442830  *   69.2986730  *     4     1     2
     8       H          1.09352700  *  109.6420170  *  -12.3266500  *     2     1     3
     9       H          1.09297300  *  109.7272960  * -131.3145220  *     2     1     3
    10       H          1.09248500  *  109.5411810  *  107.6558060  *     2     1     3
 


          CARTESIAN COORDINATES 

    NO.       ATOM           X           Y           Z

     1         C          0.0000      0.0000      0.0000
     2         C          1.5049      0.0000      0.0000
     3         O         -0.6437      1.0478      0.0000
     4         C         -0.6788     -1.3417      0.0642
     5         H         -0.2764     -1.9961     -0.7132
     6         H         -1.7517     -1.2194     -0.1077
     7         H         -0.5188     -1.7854      1.0496
     8         H          1.8725      1.0062     -0.2199
     9         H          1.8739     -0.6792     -0.7727
    10         H          1.8704     -0.3123      0.9811

           Empirical Formula: C3 H6 O  =    10 atoms



      MOLECULAR POINT GROUP   :   Cs  


      RHF CALCULATION, NO. OF DOUBLY OCCUPIED LEVELS = 12

 WARNING: INDO only performs single-point calculations

 Summary of symmetry occupancy in each shell:

 SHELL     
    1   12
    v   10
 TOTAL  22




    ROOT NO.    1           2           3           4           5           6

           -43.82198   -34.94064   -31.73394   -20.88318   -18.44981   -18.30570
  
  
  S  C   1   0.54213    -0.14857     0.00031     0.46070    -0.00075     0.00460
 PX  C   1  -0.10280    -0.21913    -0.30414     0.11283    -0.40861    -0.01200
 PY  C   1   0.16769     0.35642    -0.18725    -0.18321    -0.25248     0.03624
 PZ  C   1   0.00354    -0.00639     0.00893     0.01037     0.01209     0.35571
  
  S  C   2   0.24924    -0.41359    -0.50292    -0.15113     0.07492     0.00868
 PX  C   2  -0.11114     0.04181    -0.01355    -0.42257     0.37947     0.01074
 PY  C   2   0.02071     0.08435    -0.05976    -0.11469    -0.24106     0.07104
 PZ  C   2   0.00026    -0.00075     0.00274     0.01125     0.01928     0.45618
  
  S  O   3   0.63501     0.46529    -0.00005    -0.25439     0.00223    -0.05572
 PX  O   3   0.12503     0.04922    -0.09900     0.10325    -0.34394     0.03754
 PY  O   3  -0.20339    -0.08017    -0.06078    -0.16758    -0.20821    -0.05045
 PZ  O   3   0.00071    -0.00140     0.00292     0.00638     0.01014     0.22939
  
  S  C   4   0.24905    -0.41309     0.50328    -0.15159    -0.07524     0.00868
 PX  C   4   0.03164    -0.09404    -0.05923     0.29254    -0.04246    -0.04855
 PY  C   4   0.10848     0.00074     0.01512     0.32564     0.44623     0.03476
 PZ  C   4  -0.00393     0.00325    -0.00061    -0.00976    -0.02888     0.45602
  
  S  H   5   0.09004    -0.22013     0.21477    -0.13174    -0.23175    -0.29602
  
  S  H   6   0.10911    -0.13888     0.27439    -0.25721     0.05026    -0.01395
  
  S  H   7   0.09318    -0.20279     0.22628    -0.14415    -0.19815     0.32402
  
  S  H   8   0.10917    -0.13914    -0.27431    -0.25735    -0.05200    -0.01605
  
  S  H   9   0.09011    -0.22067    -0.21450    -0.13098     0.23343    -0.29622
  
  S  H  10   0.09333    -0.20285    -0.22641    -0.14422     0.19797     0.32645




    ROOT NO.    7           8           9          10          11          12

           -17.94610   -15.63238   -14.63669   -14.22786   -12.44513   -10.39813
  
  
  S  C   1  -0.12437     0.00004     0.03508    -0.00006    -0.00750    -0.00025
 PX  C   1   0.12077     0.02499     0.20207    -0.25117     0.00595    -0.23292
 PY  C   1  -0.18924     0.01565    -0.33441    -0.14949     0.00848    -0.14352
 PZ  C   1   0.05906    -0.00178    -0.00230     0.00710     0.38447     0.00687
  
  S  C   2  -0.02060     0.00125     0.01757    -0.04131    -0.00001    -0.07864
 PX  C   2  -0.03860    -0.02314    -0.18302     0.21329    -0.00281     0.23120
 PY  C   2  -0.36963    -0.00233     0.31680     0.42345     0.00263    -0.02606
 PZ  C   2   0.07644     0.50388    -0.01151     0.01859    -0.17461     0.00412
  
  S  O   3   0.41345    -0.00017     0.22595    -0.00231    -0.00020     0.00036
 PX  O   3  -0.24908     0.01641    -0.28824    -0.14562     0.01954     0.75592
 PY  O   3   0.41026     0.00964     0.46543    -0.09658     0.00840     0.46459
 PZ  O   3   0.03982    -0.00139    -0.00614     0.00406     0.84407    -0.02220
  
  S  C   4  -0.02022    -0.00130     0.01833     0.04067     0.00003     0.07856
 PX  C   4   0.34923    -0.03381    -0.18905     0.47832    -0.00809     0.08080
 PY  C   4  -0.13482    -0.03328     0.30498    -0.00927    -0.00090     0.21789
 PZ  C   4   0.06504    -0.50386    -0.01250    -0.03846    -0.17514    -0.01316
  
  S  H   5   0.12469     0.30389    -0.21718     0.20911     0.12116    -0.06404
  
  S  H   6  -0.29706     0.09369     0.21400    -0.41145     0.03074    -0.03202
  
  S  H   7   0.12551    -0.37896    -0.13890     0.05917    -0.15308    -0.05651
  
  S  H   8  -0.29744    -0.09596     0.22342     0.40453     0.03181     0.03186
  
  S  H   9   0.12440    -0.30127    -0.22429    -0.20500     0.12010     0.06433
  
  S  H  10   0.12294     0.37880    -0.13886    -0.05389    -0.15292     0.05654




    ROOT NO.   13          14          15          16          17          18

             0.47829     3.05065     4.25934     5.34252     6.72426     6.93018
  
  
  S  C   1  -0.03131     0.52581    -0.00241     0.40200    -0.05673    -0.00016
 PX  C   1   0.01217     0.05753     0.22494    -0.01565     0.02671     0.00003
 PY  C   1   0.02058    -0.09060     0.13858     0.02790    -0.04368    -0.00027
 PZ  C   1   0.84228     0.03838    -0.00685     0.02039     0.00272    -0.00502
  
  S  C   2   0.01006    -0.43512    -0.47590     0.22634    -0.01668    -0.00241
 PX  C   2  -0.01671     0.22700    -0.06860     0.40901    -0.06026     0.00074
 PY  C   2  -0.00173     0.00973    -0.00450     0.05002     0.49459     0.07923
 PZ  C   2  -0.05793    -0.00181    -0.00365    -0.00530    -0.02990     0.51193
  
  S  O   3   0.00323    -0.08468     0.00039    -0.09398     0.01910     0.00003
 PX  O   3  -0.00430    -0.10228    -0.05496    -0.10900     0.00785    -0.00529
 PY  O   3  -0.01612     0.16576    -0.03475     0.17701    -0.01354    -0.00344
 PZ  O   3  -0.48154    -0.01194     0.00171    -0.00555    -0.00414     0.00138
  
  S  C   4   0.01020    -0.43268     0.47694     0.22895    -0.01693     0.00216
 PX  C   4   0.00667    -0.11084    -0.03316    -0.22769    -0.40048     0.04998
 PY  C   4   0.01271    -0.19885    -0.05568    -0.34303     0.26979    -0.04618
 PZ  C   4  -0.05892     0.00822     0.00644     0.01315    -0.01875    -0.46415
  
  S  H   5   0.09371     0.18043    -0.28700    -0.19749     0.27403    -0.33487
  
  S  H   6   0.02237     0.17030    -0.25756    -0.29267    -0.37582    -0.01592
  
  S  H   7  -0.12399     0.17399    -0.28722    -0.21695     0.17561     0.34543
  
  S  H   8   0.02311     0.17096     0.25816    -0.29315    -0.38879     0.02532
  
  S  H   9   0.09330     0.18247     0.28713    -0.19413     0.28339     0.36371
  
  S  H  10  -0.12417     0.17568     0.28757    -0.21537     0.17791    -0.38323




    ROOT NO.   19          20          21          22

             7.04673     7.06002     9.69071    12.14528
  
  
  S  C   1   0.00137    -0.00030     0.00024     0.11276
 PX  C   1  -0.00018    -0.06913     0.54060    -0.37898
 PY  C   1  -0.00496    -0.04197     0.33370     0.61367
 PZ  C   1  -0.09982     0.00268    -0.01599    -0.00614
  
  S  C   2  -0.00049     0.00879    -0.07958     0.05386
 PX  C   2  -0.00006    -0.02488     0.50148    -0.22141
 PY  C   2   0.03153     0.48973     0.03491    -0.00453
 PZ  C   2   0.47675    -0.08351    -0.00615     0.00023
  
  S  O   3  -0.00069     0.00009    -0.00053    -0.27215
 PX  O   3   0.00027    -0.00624    -0.03665    -0.27665
 PY  O   3   0.00101    -0.00452    -0.02126     0.45089
 PZ  O   3   0.02370     0.00005     0.00108     0.00071
  
  S  C   4  -0.00067    -0.00863     0.07961     0.05336
 PX  C   4  -0.00595     0.44315     0.25959     0.10357
 PY  C   4   0.02810    -0.24885     0.43148     0.19363
 PZ  C   4   0.52575     0.06477    -0.01660    -0.00934
  
  S  H   5   0.33045    -0.22595     0.08951     0.05341
  
  S  H   6   0.06105     0.40318     0.14544     0.01184
  
  S  H   7  -0.39196    -0.18881     0.09235     0.04458
  
  S  H   8   0.05518    -0.39102    -0.14420     0.01199
  
  S  H   9   0.29810     0.21463    -0.08995     0.05392
  
  S  H  10  -0.35419     0.18736    -0.09231     0.04471


 Reference determinate nber   1 is ALPHA 1 -  12
 SINGLE excitations FROM orbs  10 to  12 INTO orbs  13 to  15
 

 CI excitations=   10:        = 10
 The lowest   10 spin-adapted configurations of multiplicity=  1
     sym   eV   cm**-1 -dets- dipole oscilator X FRAG ....Excitations named from first reference determinate
                       tot  #  Debye  strength
 
   1      0.000      0.  1  1  5.4622 0.000000 0  0 (    )->(       )
   2      3.716  29971.  1  1  2.2983 0.000025 1  1 (  12)->(  13   )
   3      8.377  67564.  1  1  1.0523 0.020960 1  1 (  12)->(  14   )
   4      8.739  70489.  1  1  3.0224 0.548831 1  1 (  11)->(  13   )
   5      9.281  74854.  1  1  9.0167 0.000027 1  1 (  10)->(  13   )
   6     10.146  81834.  1  1  2.8983 0.036768 1  1 (  12)->(  15   )
   7     10.179  82103.  1  1  0.3485 0.005541 1  1 (  11)->(  14   )
   8     12.012  96885.  1  1  2.1816 0.000009 1  1 (  11)->(  15   )
   9     12.251  98815.  1  1  5.6936 0.027473 1  1 (  10)->(  14   )
  10     13.630 109931.  1  1  3.8630 0.021109 1  1 (  10)->(  15   )
 
 COSMO corrections to state energies
 State    Diag E (eV)   Uncorr E (eV)   Final E (eV)
     1        0.00000        0.00000        0.00000
     2        3.60466        3.71493        3.60469
     3        8.06208        8.37134        8.06288
     4        8.60653        8.69223        8.61590
     5        9.07723        9.28085        9.07764
     6        9.71424       10.16694        9.72391
     7        9.91314       10.18064        9.91331
     8       11.59003       12.01249       11.59019
     9       12.22656       12.25738       12.22709
    10       13.62421       13.65500       13.62496

 Depression of ground-state after CI=          0. cm**-1 Energy=   779.3932710 eV
 Dipole moment=  2.861958 -4.650083  0.148013 tot=  5.462232 Debyes


  CI trans.  energy frequency wavelength oscillator--------- polarization---------  dipole  ------ components-----
 st.  symm.    eV      cm - 1       nm      strength       x          y         z       moment     x       y       z 

   2      3.6046920    29074.    343.95  0.000012   0.842699   0.538206   0.013876  2.285614   1.198  -1.938   0.178
   3      8.0628765    65032.    153.77  0.018811  -0.856297  -0.515858   0.025394  1.120760  -0.589   0.953   0.007
   4      8.6158956    69492.    143.90  0.460875  -0.523100   0.851993  -0.021758  2.775730   1.446  -2.348   0.318
   5      9.0776413    73216.    136.58  0.000011  -0.398768  -0.855877   0.329330  9.025606   4.628  -7.744  -0.286
   6      9.7239133    78429.    127.50  0.106721  -0.522268   0.852773  -0.003649  2.564720  -1.357   2.176  -0.012
   7      9.9133142    79956.    125.07  0.007446   0.314571  -0.472151   0.823480  0.336625  -0.177   0.282   0.050
   8     11.5901854    93481.    106.97  0.000011  -0.882489  -0.460270  -0.096772  2.180248  -1.163   1.843   0.061
   9     12.2270911    98618.    101.40  0.029567  -0.865233  -0.500782   0.024285  5.761011   2.941  -4.929  -0.495
  10     13.6249582   109893.     91.00  0.044920  -0.515622   0.855108   0.054082  3.780166   1.797  -3.283  -0.530
 
 Polarizability (au  ) xx=    5.42 xy=   -7.05 yy=   12.55 xz=    0.17 yz=   -0.32 zz=    0.12
 Polarizability (A**3) xx=    0.80 xy=   -1.04 yy=    1.86 xz=    0.02 yz=   -0.05 zz=    0.02
 
 
 Major CI contributions to CI states
 
State    1  0.0000     CI coeff  CI percent
    Config       1   1.00000000  1.00000000
 Total coeff printed             1.00000000
  
State    2  3.6047     CI coeff  CI percent
    Config       2  -0.99988559  0.99977119
 Total coeff printed             0.99977119
  
State    3  8.0629     CI coeff  CI percent
    Config       3  -0.99908488  0.99817061
 Total coeff printed             0.99817061
  
State    4  8.6159     CI coeff  CI percent
    Config       4  -0.97902526  0.95849045
    Config       6   0.19506462  0.03805021
    Config      10  -0.05630280  0.00317001
 Total coeff printed             0.99971066
  
State    5  9.0776     CI coeff  CI percent
    Config       5  -0.99976811  0.99953626
 Total coeff printed             0.99953626
  
State    6  9.7239     CI coeff  CI percent
    Config       4  -0.19151020  0.03667616
    Config       6  -0.97901827  0.95847678
    Config       7   0.05182363  0.00268569
    Config      10  -0.04645919  0.00215846
 Total coeff printed             0.99999708
  
State    7  9.9133     CI coeff  CI percent
    Config       6   0.04742537  0.00224917
    Config       7   0.99850796  0.99701814
 Total coeff printed             0.99926730
  
State    8 11.5902     CI coeff  CI percent
    Config       8   0.99992615  0.99985230
 Total coeff printed             0.99985230
  
State    9 12.2271     CI coeff  CI percent
    Config       9  -0.99929311  0.99858672
 Total coeff printed             0.99858672
  
State   10 13.6250     CI coeff  CI percent
    Config       4  -0.06435947  0.00414214
    Config      10   0.99728402  0.99457541
 Total coeff printed             0.99871755
  

 **********************
 *                    *
 * JOB ENDED NORMALLY *
 *                    *
 **********************



 TOTAL JOB TIME:             0.05 SECONDS

 == MOPAC DONE ==
