 *******************************************************************************
 ** Cite this program as: MOPAC2016, Version: 22.066W, James J. P. Stewart,   **
 **                           web-site: HTTP://OpenMOPAC.net.                 **
 *******************************************************************************
 **                                                                           **
 **                                MOPAC2016                                  **
 **                                                                           **
 *******************************************************************************

                              PM7 CALCULATION RESULTS

 *******************************************************************************
 *  CALCULATION DONE:                                Sat May 14 22:07:07 2022  *
 *  PM7        - The PM7 Hamiltonian to be used
 *  EPS=20.7   - USE ANDREAS KLAMT'S COSMO IMPLICIT SOLVATION MODEL
 *  PRECISE    - TIGHTER CRITERIA TO BE USED
 *  EF         - USE EF ROUTINE FOR MINIMUM SEARCH
 *  T=         - A TIME OF 172800.0 SECONDS REQUESTED
 *  DUMP=N     - RESTART FILE WRITTEN EVERY 7200.0 SECONDS REQUESTED
 *  BONDS      - FINAL BOND-ORDER MATRIX TO BE PRINTED
 *******************************************************************************
PM7 BONDS EF PRECISE EPS=20.7
 # optimize the geometry

  ATOM    CHEMICAL      BOND LENGTH      BOND ANGLE     TWIST ANGLE 
 NUMBER    SYMBOL       (ANGSTROMS)      (DEGREES)       (DEGREES) 
   (I)                     NA:I           NB:NA:I       NC:NB:NA:I       NA    NB    NC 
     1       C          0.00000000       0.0000000       0.0000000        0     0     0
     2       C          1.50494800  *    0.0000000       0.0000000        1     0     0
     3       O          1.22975900  *  121.5654430  *    0.0000000        1     2     0
     4       C          1.50494800  *  116.8089720  * -177.2591100  *     1     2     3
     5       H          1.09297000  *  109.7214080  *  -51.7345210  *     4     1     2
     6       H          1.09352800  *  109.6441020  * -170.7287890  *     4     1     2
     7       H          1.09248800  *  109.5442830  *   69.2986730  *     4     1     2
     8       H          1.09352700  *  109.6420170  *  -12.3266500  *     2     1     3
     9       H          1.09297300  *  109.7272960  * -131.3145220  *     2     1     3
    10       H          1.09248500  *  109.5411810  *  107.6558060  *     2     1     3
 


          CARTESIAN COORDINATES 

    NO.       ATOM           X           Y           Z

     1         C          0.0000      0.0000      0.0000
     2         C          1.5049      0.0000      0.0000
     3         O         -0.6437      1.0478      0.0000
     4         C         -0.6788     -1.3417      0.0642
     5         H         -0.2764     -1.9961     -0.7132
     6         H         -1.7517     -1.2194     -0.1077
     7         H         -0.5188     -1.7854      1.0496
     8         H          1.8725      1.0062     -0.2199
     9         H          1.8739     -0.6792     -0.7727
    10         H          1.8704     -0.3123      0.9811

 General Reference for PM7:
 "Optimization of Parameters for Semiempirical Methods VI: More Modifications to the 
 NDDO Approximations and Re-optimization of Parameters", J. J. P. Stewart, J. Mol. Mod., 1:32, 19 (2013)
 https://link.springer.com/article/10.1007/s00894-012-1667-x

           Empirical Formula: C3 H6 O  =    10 atoms



      MOLECULAR POINT GROUP   :   Cs  


      RHF CALCULATION, NO. OF DOUBLY OCCUPIED LEVELS = 12


          Geometry optimization using EF

          DIAGONAL MATRIX USED AS START HESSIAN

 CYCLE:     1 TIME:   0.016 TIME LEFT:  2.00D  GRAD.:    37.901 HEAT: -61.15371
 CYCLE:     2 TIME:   0.008 TIME LEFT:  2.00D  GRAD.:    33.938 HEAT: -61.70666
 CYCLE:     3 TIME:   0.008 TIME LEFT:  2.00D  GRAD.:    10.159 HEAT: -62.22082
 CYCLE:     4 TIME:   0.008 TIME LEFT:  2.00D  GRAD.:     4.221 HEAT: -62.43975
 CYCLE:     5 TIME:   0.016 TIME LEFT:  2.00D  GRAD.:     1.831 HEAT: -62.48496
 CYCLE:     6 TIME:   0.000 TIME LEFT:  2.00D  GRAD.:     0.681 HEAT: -62.48732
 CYCLE:     7 TIME:   0.008 TIME LEFT:  2.00D  GRAD.:     0.531 HEAT: -62.48816
 CYCLE:     8 TIME:   0.008 TIME LEFT:  2.00D  GRAD.:     0.525 HEAT: -62.49450
 CYCLE:     9 TIME:   0.000 TIME LEFT:  2.00D  GRAD.:     0.389 HEAT: -62.49519
 CYCLE:    10 TIME:   0.008 TIME LEFT:  2.00D  GRAD.:     0.334 HEAT: -62.49514
 CYCLE:    11 TIME:   0.008 TIME LEFT:  2.00D  GRAD.:     0.514 HEAT: -62.49562
 CYCLE:    12 TIME:   0.000 TIME LEFT:  2.00D  GRAD.:     0.842 HEAT: -62.49440
 CYCLE:    13 TIME:   0.008 TIME LEFT:  2.00D  GRAD.:     1.486 HEAT: -62.49533
 CYCLE:    14 TIME:   0.016 TIME LEFT:  2.00D  GRAD.:     1.713 HEAT: -62.50722
 CYCLE:    15 TIME:   0.008 TIME LEFT:  2.00D  GRAD.:     1.475 HEAT: -62.50828
 CYCLE:    16 TIME:   0.008 TIME LEFT:  2.00D  GRAD.:     1.508 HEAT: -62.51159
 CYCLE:    17 TIME:   0.008 TIME LEFT:  2.00D  GRAD.:     0.804 HEAT: -62.52580
 CYCLE:    18 TIME:   0.031 TIME LEFT:  2.00D  GRAD.:     0.481 HEAT: -62.53258
 CYCLE:    19 TIME:   0.016 TIME LEFT:  2.00D  GRAD.:     0.242 HEAT: -62.53294
 CYCLE:    20 TIME:   0.039 TIME LEFT:  2.00D  GRAD.:     0.172 HEAT: -62.53291

     TRUST RADIUS NOW LESS THAN  0.00010 OPTIMIZATION TERMINATING
      THE GEOMETRY MAY NOT BE COMPLETELY OPTIMIZED
      (TO CONTINUE, ADD 'LET DDMIN=0.0' TO THE KEYWORD LINE)

 -------------------------------------------------------------------------------
 PM7 BONDS EF PRECISE EPS=20.7
 # optimize the geometry



     GEOMETRY OPTIMISED USING EIGENVECTOR FOLLOWING (EF).     
     SCF FIELD WAS ACHIEVED                                   


                              PM7 CALCULATION
                                                       MOPAC2016 (Version: 22.066W)
                                                       Sat May 14 22:07:07 2022




          FINAL HEAT OF FORMATION =        -62.53294 KCAL/MOL =    -261.63781 KJ/MOL
          VAN DER WAALS AREA      =        101.35 SQUARE ANGSTROMS



          DIELECTRIC ENERGY       =         -0.41414 EV
          COSMO AREA              =        101.35 SQUARE ANGSTROMS
          COSMO VOLUME            =         84.88 CUBIC ANGSTROMS

          GRADIENT NORM           =          0.24172          =       0.07644 PER ATOM
          IONIZATION POTENTIAL    =         10.781791 EV
          HOMO LUMO ENERGIES (EV) =        -10.782  0.600
          NO. OF FILLED LEVELS    =         12
          MOLECULAR WEIGHT        =         58.0798         POINT GROUP:  C2v 

          MOLECULAR DIMENSIONS (Angstroms)

            Atom       Atom       Distance
            H     8    H     6     4.32646
            H     7    O     3     2.81042
            H    10    H     5     1.81708


          SCF CALCULATIONS        =         37
 
          WALL-CLOCK TIME         =          0.289 SECONDS
          COMPUTATION TIME        =          0.234 SECONDS




  ATOM    CHEMICAL      BOND LENGTH      BOND ANGLE     TWIST ANGLE 
 NUMBER    SYMBOL       (ANGSTROMS)      (DEGREES)       (DEGREES) 
   (I)                     NA:I           NB:NA:I       NC:NB:NA:I       NA    NB    NC 
     1       C          0.00000000       0.0000000       0.0000000        0     0     0
     2       C          1.49091757  *    0.0000000       0.0000000        1     0     0
     3       O          1.21568203  *  121.0772373  *    0.0000000        1     2     0
     4       C          1.49102117  *  117.8713772  *  179.8583449  *     1     2     3
     5       H          1.10256660  *  111.4617474  *  -63.3345610  *     4     1     2
     6       H          1.10059369  *  112.5434643  *  176.3655826  *     4     1     2
     7       H          1.10184874  *  111.7908485  *   55.6289763  *     4     1     2
     8       H          1.10068793  *  112.5755482  *   -2.7429251  *     2     1     3
     9       H          1.10178051  *  111.7943007  * -123.4866239  *     2     1     3
    10       H          1.10254882  *  111.4680513  *  117.5568096  *     2     1     3

                             CARTESIAN COORDINATES

   1    C        0.000000000     0.000000000     0.000000000
   2    C        1.490917570     0.000000000     0.000000000
   3    O       -0.627526685     1.041197898     0.000000000
   4    C       -0.697034890    -1.318057608    -0.003258704
   5    H       -0.478540591    -1.887678994    -0.921651225
   6    H       -1.791066352    -1.216976574     0.061427115
   7    H       -0.377652643    -1.951744967     0.839656455
   8    H        1.913473090     1.015182340    -0.048637061
   9    H        1.899981652    -0.564447969    -0.853220576
  10    H        1.894430990    -0.474682080     0.909652540


           Empirical Formula: C3 H6 O  =    10 atoms



      MOLECULAR POINT GROUP   :   C2v 


                  EIGENVALUES  
 -31.13588 -27.35830 -24.73910 -19.28038 -16.01882 -15.94717 -15.66693 -13.72592
 -13.34135 -13.26312 -12.90357 -10.78179   0.59970   3.18449   3.96179   4.53396
   5.27796   5.33294   5.42526   5.56604   6.54253   6.67824


              NET ATOMIC CHARGES AND DIPOLE CONTRIBUTIONS

  ATOM NO.   TYPE          CHARGE      No. of ELECS.   s-Pop       p-Pop       
    1          C           0.600906        3.3991     1.11467     2.28443
    2          C          -0.570359        4.5704     1.06601     3.50435
    3          O          -0.614731        6.6147     1.87492     4.73981
    4          C          -0.569905        4.5699     1.06602     3.50389
    5          H           0.196270        0.8037     0.80373
    6          H           0.186167        0.8138     0.81383
    7          H           0.194449        0.8056     0.80555
    8          H           0.186733        0.8133     0.81327
    9          H           0.194204        0.8058     0.80580
   10          H           0.196267        0.8037     0.80373
 DIPOLE           X         Y         Z       TOTAL
 POINT-CHG.     2.546    -4.220    -0.003     4.929
 HYBRID        -0.085     0.141     0.000     0.165
 SUM            2.460    -4.080    -0.003     4.764


          ATOMIC ORBITAL ELECTRON POPULATIONS

     Atom    s        px        py        pz   
    1  C   1.11467   0.87559   0.83167   0.57716
    2  C   1.06601   1.06836   1.22238   1.21361
    3  O   1.87492   1.76132   1.47433   1.50416
    4  C   1.06602   1.19023   1.09995   1.21371
    5  H   0.80373
    6  H   0.81383
    7  H   0.80555
    8  H   0.81327
    9  H   0.80580
   10  H   0.80373

          BONDING CONTRIBUTION OF EACH M.O.

  1.4104  1.6546  2.0508  1.4674  1.8753  1.5669  1.5111  1.8842  1.6720  1.8116
  1.4989  0.7768 -1.6422 -2.1779 -1.9844 -1.8843 -1.9208 -1.9313 -1.9448 -1.9432
 -1.8728 -1.8783





            (VALENCIES)   BOND ORDERS

     1  C     (3.745)     3  O 1.729     2  C 0.988     4  C 0.988
 
     2  C     (3.894)     1  C 0.988     8  H 0.954     9  H 0.939    10  H 0.937     3  O 0.051     4  C 0.021
 
     3  O     (1.869)     1  C 1.729     2  C 0.051     4  C 0.051
 
     4  C     (3.894)     1  C 0.988     6  H 0.954     7  H 0.939     5  H 0.936     3  O 0.051     2  C 0.021
 
     5  H     (0.961)     4  C 0.936
 
     6  H     (0.965)     4  C 0.954
 
     7  H     (0.962)     4  C 0.939
 
     8  H     (0.965)     2  C 0.954
 
     9  H     (0.962)     2  C 0.939
 
    10  H     (0.961)     2  C 0.937
 
 *******************************************************************************
 ** Cite this program as: MOPAC2016, Version: 22.066W, James J. P. Stewart,   **
 **                           web-site: HTTP://OpenMOPAC.net.                 **
 *******************************************************************************
 **                                                                           **
 **                                MOPAC2016                                  **
 **                                                                           **
 *******************************************************************************

                              INDO CALCULATION RESULTS

 *******************************************************************************
 *  CALCULATION DONE:                                Sat May 14 22:07:07 2022  *
 *  INDO       - The INDO Hamiltonian to be used
 *  CIS        - C.I. USES 1 ELECTRON EXCITATIONS ONLY
 *  C.I.=6     - 6 M.O.S TO BE USED IN C.I.
 *  EPS=20.7   - USE ANDREAS KLAMT'S COSMO IMPLICIT SOLVATION MODEL
 *  OLDGEO     - PREVIOUS GEOMETRY TO BE USED
 *  T=         - A TIME OF 172800.0 SECONDS REQUESTED
 *  DUMP=N     - RESTART FILE WRITTEN EVERY 7200.0 SECONDS REQUESTED
 *  MECI       - M.E.C.I. WORKING TO BE PRINTED
 **********
 *  WARNING: Specified print options may not behave as expected with INDO
 **********
 *******************************************************************************
EPS=20.7 OLDGEO INDO CIS C.I.=6 MECI
 # calculate the excited states

  ATOM    CHEMICAL      BOND LENGTH      BOND ANGLE     TWIST ANGLE 
 NUMBER    SYMBOL       (ANGSTROMS)      (DEGREES)       (DEGREES) 
   (I)                     NA:I           NB:NA:I       NC:NB:NA:I       NA    NB    NC 
     1       C          0.00000000       0.0000000       0.0000000        0     0     0
     2       C          1.49091757  *    0.0000000       0.0000000        1     0     0
     3       O          1.21568203  *  121.0772373  *    0.0000000        1     2     0
     4       C          1.49102117  *  117.8713772  *  179.8583449  *     1     2     3
     5       H          1.10256660  *  111.4617474  *  -63.3345610  *     4     1     2
     6       H          1.10059369  *  112.5434643  *  176.3655826  *     4     1     2
     7       H          1.10184874  *  111.7908485  *   55.6289763  *     4     1     2
     8       H          1.10068793  *  112.5755482  *   -2.7429251  *     2     1     3
     9       H          1.10178051  *  111.7943007  * -123.4866239  *     2     1     3
    10       H          1.10254882  *  111.4680513  *  117.5568096  *     2     1     3
 


          CARTESIAN COORDINATES 

    NO.       ATOM           X           Y           Z

     1         C          0.0000      0.0000      0.0000
     2         C          1.4909      0.0000      0.0000
     3         O         -0.6275      1.0412      0.0000
     4         C         -0.6970     -1.3181     -0.0033
     5         H         -0.4785     -1.8877     -0.9217
     6         H         -1.7911     -1.2170      0.0614
     7         H         -0.3777     -1.9517      0.8397
     8         H          1.9135      1.0152     -0.0486
     9         H          1.9000     -0.5644     -0.8532
    10         H          1.8944     -0.4747      0.9097

           Empirical Formula: C3 H6 O  =    10 atoms



      MOLECULAR POINT GROUP   :   C2v 


      RHF CALCULATION, NO. OF DOUBLY OCCUPIED LEVELS = 12

 WARNING: INDO only performs single-point calculations

 Summary of symmetry occupancy in each shell:

 SHELL     
    1   12
    v   10
 TOTAL  22




    ROOT NO.    1           2           3           4           5           6

           -44.14008   -34.82291   -31.71607   -21.20014   -18.73653   -18.06457
  
  
  S  C   1   0.54167    -0.15779     0.00034     0.45128    -0.00034    -0.00056
 PX  C   1  -0.10518    -0.21440    -0.30479     0.11562    -0.41932     0.00021
 PY  C   1   0.17465     0.35554    -0.18430    -0.19154    -0.25353    -0.00250
 PZ  C   1  -0.00018     0.00035    -0.00085    -0.00034    -0.00046     0.37621
  
  S  C   2   0.24354    -0.41913    -0.50293    -0.14252     0.06065    -0.00092
 PX  C   2  -0.11268     0.03728    -0.02043    -0.42640     0.38523    -0.00095
 PY  C   2   0.02221     0.08658    -0.05609    -0.11041    -0.22843    -0.00466
 PZ  C   2   0.00008    -0.00032    -0.00070     0.00028    -0.00150     0.46001
  
  S  O   3   0.64099     0.45250    -0.00037    -0.25648     0.00111     0.00358
 PX  O   3   0.12502     0.04543    -0.10199     0.09860    -0.35085    -0.00458
 PY  O   3  -0.20737    -0.07542    -0.06138    -0.16324    -0.20984     0.00215
 PZ  O   3  -0.00004     0.00008    -0.00009    -0.00022    -0.00003     0.25539
  
  S  C   4   0.24341    -0.41809     0.50370    -0.14305    -0.06105     0.00039
 PX  C   4   0.03299    -0.09396    -0.05874     0.29607    -0.02118     0.00166
 PY  C   4   0.11006     0.00740     0.00843     0.32546     0.44759    -0.00220
 PZ  C   4   0.00007     0.00031    -0.00065     0.00025     0.00078     0.45802
  
  S  H   5   0.08622    -0.21038     0.22422    -0.14560    -0.20327    -0.31451
  
  S  H   6   0.10308    -0.14066     0.27250    -0.25921     0.03106     0.02074
  
  S  H   7   0.08494    -0.21596     0.21967    -0.13959    -0.22280     0.29270
  
  S  H   8   0.10309    -0.14111    -0.27235    -0.25962    -0.03173    -0.02069
  
  S  H   9   0.08517    -0.21586    -0.21987    -0.14007     0.22175    -0.29473
  
  S  H  10   0.08612    -0.21164    -0.22342    -0.14450     0.20468     0.31537




    ROOT NO.    7           8           9          10          11          12

           -17.85806   -15.34522   -14.53938   -14.28009   -12.48781   -10.37574
  
  
  S  C   1  -0.12005     0.00135     0.03318    -0.00017     0.00042    -0.00020
 PX  C   1   0.12091     0.00114     0.19418    -0.24065    -0.00123    -0.23092
 PY  C   1  -0.19829     0.00078    -0.33063    -0.13773    -0.00113    -0.13965
 PZ  C   1  -0.00353     0.00120    -0.00018    -0.00125     0.37848     0.00063
  
  S  C   2  -0.02267     0.00061     0.02676    -0.04452    -0.00025    -0.08742
 PX  C   2  -0.04228    -0.00139    -0.17283     0.20541     0.00144     0.22422
 PY  C   2  -0.37102    -0.00140     0.32784     0.42676     0.00248    -0.03283
 PZ  C   2  -0.00480    -0.50619    -0.00071     0.00034    -0.18718     0.00224
  
  S  O   3   0.42117    -0.00162     0.21861    -0.00353     0.00004     0.00036
 PX  O   3  -0.25670     0.00185    -0.28133    -0.12106     0.00145     0.76141
 PY  O   3   0.42699    -0.00121     0.46199    -0.08371     0.00123     0.45917
 PZ  O   3  -0.00242     0.00126    -0.00012    -0.00364     0.83429    -0.00208
  
  S  C   4  -0.02271     0.00059     0.02804     0.04326     0.00018     0.08728
 PX  C   4   0.34637    -0.00082    -0.19191     0.48149     0.00311     0.07587
 PY  C   4  -0.13798    -0.00179     0.30424    -0.02892     0.00033     0.21369
 PZ  C   4  -0.00348     0.50768     0.00179     0.00344    -0.18819     0.00294
  
  S  H   5   0.10635    -0.36285    -0.16703     0.12269     0.15639    -0.06396
  
  S  H   6  -0.28950     0.02773     0.22139    -0.42716    -0.01287    -0.02738
  
  S  H   7   0.13417     0.33347    -0.19785     0.16945    -0.14379    -0.06648
  
  S  H   8  -0.29018     0.01893     0.23672     0.41818     0.01013     0.02729
  
  S  H   9   0.13523     0.33659    -0.20071    -0.15542     0.14473     0.06611
  
  S  H  10   0.10442    -0.35878    -0.17571    -0.12377    -0.15454     0.06459




    ROOT NO.   13          14          15          16          17          18

             0.52471     2.99852     4.24724     5.54152     6.63555     6.72036
  
  
  S  C   1   0.00162     0.52374    -0.00233     0.41284    -0.06743    -0.00948
 PX  C   1   0.00043     0.06007     0.24227    -0.01838     0.02674     0.00425
 PY  C   1  -0.00044    -0.09812     0.14645     0.03145    -0.04544    -0.00752
 PZ  C   1   0.83762    -0.00200    -0.00087    -0.00103     0.00011    -0.00543
  
  S  C   2  -0.00101    -0.44420    -0.47565     0.20947    -0.02807    -0.00351
 PX  C   2   0.00007     0.20747    -0.07464     0.41604    -0.07435    -0.01119
 PY  C   2   0.00007     0.00475    -0.00249     0.06802     0.48963     0.07161
 PZ  C   2  -0.05144     0.00018     0.00037     0.00014    -0.07264     0.50988
  
  S  O   3  -0.00017    -0.08155     0.00036    -0.09921     0.02014     0.00282
 PX  O   3  -0.00118    -0.09476    -0.05919    -0.10972     0.00804     0.00151
 PY  O   3  -0.00003     0.15691    -0.03654     0.18194    -0.01400    -0.00226
 PZ  O   3  -0.48775     0.00065     0.00057     0.00026     0.00011     0.00135
  
  S  C   4  -0.00020    -0.44133     0.47751     0.21145    -0.02814    -0.00381
 PX  C   4  -0.00074    -0.10117    -0.03550    -0.25202    -0.38092    -0.05656
 PY  C   4  -0.00122    -0.18204    -0.06191    -0.33724     0.28578     0.04372
 PZ  C   4  -0.05171    -0.00046    -0.00021    -0.00058     0.07275    -0.46425
  
  S  H   5   0.12172     0.17623    -0.27980    -0.19332     0.26491    -0.32046
  
  S  H   6  -0.00878     0.18235    -0.25880    -0.30520    -0.36230    -0.02798
  
  S  H   7  -0.11259     0.17788    -0.28272    -0.18641     0.20779     0.36208
  
  S  H   8   0.00682     0.18334     0.25893    -0.30706    -0.37726    -0.03361
  
  S  H   9   0.11426     0.17955     0.28236    -0.18465     0.20995     0.39547
  
  S  H  10  -0.12039     0.17855     0.27950    -0.18989     0.27715    -0.34898




    ROOT NO.   19          20          21          22

             6.86061     6.97465     9.93084    12.26140
  
  
  S  C   1   0.00019    -0.00030     0.00031     0.11462
 PX  C   1   0.00068    -0.06652     0.53896    -0.37287
 PY  C   1   0.00098    -0.03937     0.32670     0.61528
 PZ  C   1  -0.11644     0.00307     0.00132     0.00031
  
  S  C   2   0.00065     0.00615    -0.07899     0.05220
 PX  C   2   0.00122    -0.01784     0.50338    -0.22378
 PY  C   2   0.01125     0.49555     0.02963    -0.00609
 PZ  C   2   0.47856    -0.01278    -0.00143     0.00019
  
  S  O   3  -0.00005     0.00009    -0.00067    -0.27654
 PX  O   3  -0.00150    -0.01000    -0.03432    -0.27158
 PY  O   3  -0.00087    -0.00681    -0.01912     0.45121
 PZ  O   3   0.02826    -0.00150    -0.00033    -0.00003
  
  S  C   4  -0.00044    -0.00602     0.07907     0.05160
 PX  C   4   0.01602     0.44632     0.26346     0.10930
 PY  C   4  -0.00910    -0.25616     0.43152     0.19288
 PZ  C   4   0.52275    -0.01611    -0.00064     0.00030
  
  S  H   5   0.37025    -0.19793     0.09545     0.04849
  
  S  H   6  -0.01195     0.40314     0.14604     0.01706
  
  S  H   7  -0.35587    -0.22174     0.09559     0.05199
  
  S  H   8   0.00875    -0.38767    -0.14496     0.01738
  
  S  H   9   0.32494     0.20917    -0.09580     0.05206
  
  S  H  10  -0.33666     0.19432    -0.09533     0.04929


 Reference determinate nber   1 is ALPHA 1 -  12
 SINGLE excitations FROM orbs  10 to  12 INTO orbs  13 to  15
 

 CI excitations=   10:        = 10
 The lowest   10 spin-adapted configurations of multiplicity=  1
     sym   eV   cm**-1 -dets- dipole oscilator X FRAG ....Excitations named from first reference determinate
                       tot  #  Debye  strength
 
   1      0.000      0.  1  1  5.4106 0.000000 0  0 (    )->(       )
   2      3.714  29957.  1  1  2.2286 0.000000 1  1 (  12)->(  13   )
   3      8.308  67005.  1  1  1.1110 0.022237 1  1 (  12)->(  14   )
   4      8.829  71213.  1  1  3.2145 0.574057 1  1 (  11)->(  13   )
   5      9.443  76160.  1  1  8.8644 0.000366 1  1 (  10)->(  13   )
   6     10.097  81438.  1  1  2.8459 0.044610 1  1 (  12)->(  15   )
   7     10.182  82122.  1  1  0.1291 0.005211 1  1 (  11)->(  14   )
   8     11.998  96769.  1  1  1.8600 0.000002 1  1 (  11)->(  15   )
   9     12.280  99047.  1  1  5.5269 0.031878 1  1 (  10)->(  14   )
  10     13.685 110374.  1  1  3.7916 0.018496 1  1 (  10)->(  15   )
 
 COSMO corrections to state energies
 State    Diag E (eV)   Uncorr E (eV)   Final E (eV)
     1        0.00000        0.00000        0.00000
     2        3.60511        3.71410        3.60511
     3        7.99081        8.30243        7.99127
     4        8.68554        8.77176        8.70101
     5        9.23015        9.44223        9.23082
     6        9.69615       10.13109        9.71197
     7        9.93296       10.18185        9.93297
     8       11.60991       11.99826       11.61015
     9       12.25165       12.28531       12.25210
    10       13.67707       13.70806       13.67766

 Depression of ground-state after CI=          0. cm**-1 Energy=   781.7331968 eV
 Dipole moment=  2.792362 -4.634401 -0.007043 tot=  5.410638 Debyes


  CI trans.  energy frequency wavelength oscillator--------- polarization---------  dipole  ------ components-----
 st.  symm.    eV      cm - 1       nm      strength       x          y         z       moment     x       y       z 

   2      3.6051115    29077.    343.91  0.000000  -0.736222   0.534956   0.414486  2.228460   1.151  -1.908  -0.008
   3      7.9912659    64454.    155.15  0.019969   0.859576   0.510999  -0.002985  1.160734  -0.609   0.988   0.000
   4      8.7010098    70179.    142.49  0.452039  -0.515119   0.857118   0.001094  2.819979   1.449  -2.419  -0.016
   5      9.2308186    74452.    134.32  0.000676  -0.517072   0.855651  -0.022317  8.858639   4.438  -7.667   0.018
   6      9.7119668    78332.    127.66  0.153216   0.514881  -0.857261  -0.000285  2.390914  -1.238   2.046   0.000
   7      9.9329695    80115.    124.82  0.005091   0.006339  -0.044074  -0.999008  0.125289  -0.075   0.100  -0.002
   8     11.6101535    93642.    106.79  0.000001  -0.701465   0.626390   0.339974  1.857723  -0.974   1.582  -0.003
   9     12.2521034    98820.    101.19  0.034017   0.874567   0.484902  -0.001352  5.574393   2.803  -4.818   0.029
  10     13.6776580   110318.     90.65  0.041321  -0.504454   0.863434  -0.002838  3.740027   1.713  -3.324   0.030
 
 Polarizability (au  ) xx=    5.50 xy=   -7.15 yy=   13.07 xz=   -0.01 yz=    0.02 zz=    0.11
 Polarizability (A**3) xx=    0.82 xy=   -1.06 yy=    1.94 xz=   -0.00 yz=    0.00 zz=    0.02
 
 
 Major CI contributions to CI states
 
State    1  0.0000     CI coeff  CI percent
    Config       1   1.00000000  1.00000000
 Total coeff printed             1.00000000
  
State    2  3.6051     CI coeff  CI percent
    Config       2  -0.99999697  0.99999395
 Total coeff printed             0.99999395
  
State    3  7.9913     CI coeff  CI percent
    Config       3   0.99942806  0.99885645
 Total coeff printed             0.99885645
  
State    4  8.7010     CI coeff  CI percent
    Config       4  -0.96697643  0.93504343
    Config       6   0.24814836  0.06157761
    Config      10  -0.05505488  0.00303104
 Total coeff printed             0.99965207
  
State    5  9.2308     CI coeff  CI percent
    Config       5   0.99962606  0.99925225
 Total coeff printed             0.99925225
  
State    6  9.7120     CI coeff  CI percent
    Config       4   0.24620438  0.06061660
    Config       6   0.96812784  0.93727151
    Config      10   0.04377720  0.00191644
 Total coeff printed             0.99980455
  
State    7  9.9330     CI coeff  CI percent
    Config       7  -0.99999213  0.99998427
 Total coeff printed             0.99998427
  
State    8 11.6102     CI coeff  CI percent
    Config       8  -0.99988577  0.99977156
 Total coeff printed             0.99977156
  
State    9 12.2521     CI coeff  CI percent
    Config       9   0.99937178  0.99874395
 Total coeff printed             0.99874395
  
State   10 13.6777     CI coeff  CI percent
    Config       4  -0.06419502  0.00412100
    Config      10   0.99746491  0.99493625
 Total coeff printed             0.99905725
  

 **********************
 *                    *
 * JOB ENDED NORMALLY *
 *                    *
 **********************



 TOTAL JOB TIME:             0.61 SECONDS

 == MOPAC DONE ==
