 *******************************************************************************
 **                                                                           **
 **                              MOPAC v22.0.0                                **
 **                                                                           **
 *******************************************************************************
 **          Digital Object Identifier (DOI): 10.5281/zenodo.6511959          **
 **    Visit the DOI location for information on how to cite this program.    **
 *******************************************************************************

                              PM7 CALCULATION RESULTS

 *******************************************************************************
 *  CALCULATION DONE:                                Sat May 14 22:08:44 2022  *
 *  PM7        - The PM7 Hamiltonian to be used
 *  EPS=20.7   - USE ANDREAS KLAMT'S COSMO IMPLICIT SOLVATION MODEL
 *  PRECISE    - TIGHTER CRITERIA TO BE USED
 *  EF         - USE EF ROUTINE FOR MINIMUM SEARCH
 *  T=         - A TIME OF 172800.0 SECONDS REQUESTED
 *  DUMP=N     - RESTART FILE WRITTEN EVERY 7200.0 SECONDS REQUESTED
 *  BONDS      - FINAL BOND-ORDER MATRIX TO BE PRINTED
 *******************************************************************************
PM7 BONDS EF PRECISE EPS=20.7
 # optimize the geometry

  ATOM    CHEMICAL      BOND LENGTH      BOND ANGLE     TWIST ANGLE 
 NUMBER    SYMBOL       (ANGSTROMS)      (DEGREES)       (DEGREES) 
   (I)                     NA:I           NB:NA:I       NC:NB:NA:I       NA    NB    NC 
     1       C          0.00000000       0.0000000       0.0000000        0     0     0
     2       C          1.50494800  *    0.0000000       0.0000000        1     0     0
     3       O          1.22975900  *  121.5654430  *    0.0000000        1     2     0
     4       C          1.50494800  *  116.8089720  * -177.2591100  *     1     2     3
     5       H          1.09297000  *  109.7214080  *  -51.7345210  *     4     1     2
     6       H          1.09352800  *  109.6441020  * -170.7287890  *     4     1     2
     7       H          1.09248800  *  109.5442830  *   69.2986730  *     4     1     2
     8       H          1.09352700  *  109.6420170  *  -12.3266500  *     2     1     3
     9       H          1.09297300  *  109.7272960  * -131.3145220  *     2     1     3
    10       H          1.09248500  *  109.5411810  *  107.6558060  *     2     1     3
 


          CARTESIAN COORDINATES 

    NO.       ATOM           X           Y           Z

     1         C          0.0000      0.0000      0.0000
     2         C          1.5049      0.0000      0.0000
     3         O         -0.6437      1.0478      0.0000
     4         C         -0.6788     -1.3417      0.0642
     5         H         -0.2764     -1.9961     -0.7132
     6         H         -1.7517     -1.2194     -0.1077
     7         H         -0.5188     -1.7854      1.0496
     8         H          1.8725      1.0062     -0.2199
     9         H          1.8739     -0.6792     -0.7727
    10         H          1.8704     -0.3123      0.9811

 General Reference for PM7:
 "Optimization of Parameters for Semiempirical Methods VI: More Modifications to the 
 NDDO Approximations and Re-optimization of Parameters", J. J. P. Stewart, J. Mol. Mod., 1:32, 19 (2013)
 https://link.springer.com/article/10.1007/s00894-012-1667-x

           Empirical Formula: C3 H6 O  =    10 atoms



      MOLECULAR POINT GROUP   :   Cs  


      RHF CALCULATION, NO. OF DOUBLY OCCUPIED LEVELS = 12


          Geometry optimization using EF

          DIAGONAL MATRIX USED AS START HESSIAN

 CYCLE:     1 TIME:   0.047 TIME LEFT:  2.00D  GRAD.:    37.901 HEAT: -61.15449
 CYCLE:     2 TIME:   0.031 TIME LEFT:  2.00D  GRAD.:    33.938 HEAT: -61.70744
 CYCLE:     3 TIME:   0.031 TIME LEFT:  2.00D  GRAD.:    10.159 HEAT: -62.22161
 CYCLE:     4 TIME:   0.031 TIME LEFT:  2.00D  GRAD.:     4.221 HEAT: -62.44054
 CYCLE:     5 TIME:   0.039 TIME LEFT:  2.00D  GRAD.:     1.831 HEAT: -62.48575
 CYCLE:     6 TIME:   0.039 TIME LEFT:  2.00D  GRAD.:     0.681 HEAT: -62.48811
 CYCLE:     7 TIME:   0.039 TIME LEFT:  2.00D  GRAD.:     0.531 HEAT: -62.48894
 CYCLE:     8 TIME:   0.031 TIME LEFT:  2.00D  GRAD.:     0.525 HEAT: -62.49528
 CYCLE:     9 TIME:   0.039 TIME LEFT:  2.00D  GRAD.:     0.389 HEAT: -62.49598
 CYCLE:    10 TIME:   0.023 TIME LEFT:  2.00D  GRAD.:     0.334 HEAT: -62.49592
 CYCLE:    11 TIME:   0.023 TIME LEFT:  2.00D  GRAD.:     0.514 HEAT: -62.49641
 CYCLE:    12 TIME:   0.031 TIME LEFT:  2.00D  GRAD.:     0.842 HEAT: -62.49518
 CYCLE:    13 TIME:   0.031 TIME LEFT:  2.00D  GRAD.:     1.486 HEAT: -62.49611
 CYCLE:    14 TIME:   0.023 TIME LEFT:  2.00D  GRAD.:     1.713 HEAT: -62.50800
 CYCLE:    15 TIME:   0.031 TIME LEFT:  2.00D  GRAD.:     1.475 HEAT: -62.50907
 CYCLE:    16 TIME:   0.023 TIME LEFT:  2.00D  GRAD.:     1.508 HEAT: -62.51238
 CYCLE:    17 TIME:   0.031 TIME LEFT:  2.00D  GRAD.:     0.804 HEAT: -62.52659
 CYCLE:    18 TIME:   0.094 TIME LEFT:  2.00D  GRAD.:     0.481 HEAT: -62.53337
 CYCLE:    19 TIME:   0.055 TIME LEFT:  2.00D  GRAD.:     0.242 HEAT: -62.53372
 CYCLE:    20 TIME:   0.250 TIME LEFT:  2.00D  GRAD.:     0.172 HEAT: -62.53370

     TRUST RADIUS NOW LESS THAN  0.00010 OPTIMIZATION TERMINATING
      THE GEOMETRY MAY NOT BE COMPLETELY OPTIMIZED
      (TO CONTINUE, ADD 'LET DDMIN=0.0' TO THE KEYWORD LINE)

 -------------------------------------------------------------------------------
 PM7 BONDS EF PRECISE EPS=20.7
 # optimize the geometry



     GEOMETRY OPTIMISED USING EIGENVECTOR FOLLOWING (EF).     
     SCF FIELD WAS ACHIEVED                                   


                              PM7 CALCULATION
                                                       MOPAC v22.0.0 Windows
                                                       Sat May 14 22:08:45 2022




          FINAL HEAT OF FORMATION =        -62.53372 KCAL/MOL =    -261.64110 KJ/MOL
          VAN DER WAALS AREA      =        101.35 SQUARE ANGSTROMS



          DIELECTRIC ENERGY       =         -0.41414 EV
          COSMO AREA              =        101.35 SQUARE ANGSTROMS
          COSMO VOLUME            =         84.88 CUBIC ANGSTROMS

          GRADIENT NORM           =          0.24172          =       0.07644 PER ATOM
          IONIZATION POTENTIAL    =         10.781791 EV
          HOMO LUMO ENERGIES (EV) =        -10.782  0.600
          NO. OF FILLED LEVELS    =         12
          MOLECULAR WEIGHT        =         58.0798         POINT GROUP:  C2v 

          MOLECULAR DIMENSIONS (Angstroms)

            Atom       Atom       Distance
            H     8    H     6     4.32646
            H     7    O     3     2.81042
            H    10    H     5     1.81708


          SCF CALCULATIONS        =         37
 
          WALL-CLOCK TIME         =          1.242 SECONDS
          COMPUTATION TIME        =          1.125 SECONDS




  ATOM    CHEMICAL      BOND LENGTH      BOND ANGLE     TWIST ANGLE 
 NUMBER    SYMBOL       (ANGSTROMS)      (DEGREES)       (DEGREES) 
   (I)                     NA:I           NB:NA:I       NC:NB:NA:I       NA    NB    NC 
     1       C          0.00000000       0.0000000       0.0000000        0     0     0
     2       C          1.49091758  *    0.0000000       0.0000000        1     0     0
     3       O          1.21568206  *  121.0772371  *    0.0000000        1     2     0
     4       C          1.49102118  *  117.8713779  *  179.8583451  *     1     2     3
     5       H          1.10256663  *  111.4617472  *  -63.3345670  *     4     1     2
     6       H          1.10059372  *  112.5434641  *  176.3655774  *     4     1     2
     7       H          1.10184877  *  111.7908499  *   55.6289702  *     4     1     2
     8       H          1.10068795  *  112.5755479  *   -2.7429234  *     2     1     3
     9       H          1.10178054  *  111.7942999  * -123.4866214  *     2     1     3
    10       H          1.10254885  *  111.4680529  *  117.5568122  *     2     1     3

                             CARTESIAN COORDINATES

   1    C        0.000000000     0.000000000     0.000000000
   2    C        1.490917584     0.000000000     0.000000000
   3    O       -0.627526695     1.041197922     0.000000000
   4    C       -0.697034915    -1.318057614    -0.003258699
   5    H       -0.478540700    -1.887678972    -0.921651290
   6    H       -1.791066395    -1.216976561     0.061427214
   7    H       -0.377652607    -1.951745052     0.839656415
   8    H        1.913473109     1.015182367    -0.048637031
   9    H        1.899981664    -0.564447951    -0.853220628
  10    H        1.894431041    -0.474682130     0.909652533


           Empirical Formula: C3 H6 O  =    10 atoms



      MOLECULAR POINT GROUP   :   C2v 


                  EIGENVALUES  
 -31.13588 -27.35830 -24.73910 -19.28038 -16.01882 -15.94717 -15.66693 -13.72592
 -13.34135 -13.26312 -12.90357 -10.78179   0.59970   3.18449   3.96179   4.53396
   5.27796   5.33294   5.42526   5.56604   6.54253   6.67824


              NET ATOMIC CHARGES AND DIPOLE CONTRIBUTIONS

  ATOM NO.   TYPE          CHARGE      No. of ELECS.   s-Pop       p-Pop       
    1          C           0.600906        3.3991     1.11467     2.28443
    2          C          -0.570359        4.5704     1.06601     3.50435
    3          O          -0.614731        6.6147     1.87492     4.73981
    4          C          -0.569905        4.5699     1.06602     3.50389
    5          H           0.196270        0.8037     0.80373
    6          H           0.186167        0.8138     0.81383
    7          H           0.194449        0.8056     0.80555
    8          H           0.186733        0.8133     0.81327
    9          H           0.194204        0.8058     0.80580
   10          H           0.196267        0.8037     0.80373
 DIPOLE           X         Y         Z       TOTAL
 POINT-CHG.     2.546    -4.220    -0.003     4.929
 HYBRID        -0.085     0.141     0.000     0.165
 SUM            2.460    -4.080    -0.003     4.764


          ATOMIC ORBITAL ELECTRON POPULATIONS

     Atom    s        px        py        pz   
    1  C   1.11467   0.87559   0.83167   0.57716
    2  C   1.06601   1.06836   1.22238   1.21361
    3  O   1.87492   1.76132   1.47433   1.50416
    4  C   1.06602   1.19023   1.09995   1.21371
    5  H   0.80373
    6  H   0.81383
    7  H   0.80555
    8  H   0.81327
    9  H   0.80580
   10  H   0.80373

          BONDING CONTRIBUTION OF EACH M.O.

  1.4104  1.6546  2.0508  1.4674  1.8753  1.5669  1.5111  1.8842  1.6720  1.8116
  1.4989  0.7768 -1.6422 -2.1779 -1.9844 -1.8843 -1.9208 -1.9313 -1.9448 -1.9432
 -1.8728 -1.8783





            (VALENCIES)   BOND ORDERS

     1  C     (3.745)     3  O 1.729     2  C 0.988     4  C 0.988
 
     2  C     (3.894)     1  C 0.988     8  H 0.954     9  H 0.939    10  H 0.937     3  O 0.051     4  C 0.021
 
     3  O     (1.869)     1  C 1.729     2  C 0.051     4  C 0.051
 
     4  C     (3.894)     1  C 0.988     6  H 0.954     7  H 0.939     5  H 0.936     3  O 0.051     2  C 0.021
 
     5  H     (0.961)     4  C 0.936
 
     6  H     (0.965)     4  C 0.954
 
     7  H     (0.962)     4  C 0.939
 
     8  H     (0.965)     2  C 0.954
 
     9  H     (0.962)     2  C 0.939
 
    10  H     (0.961)     2  C 0.937
 
 *******************************************************************************
 **                                                                           **
 **                              MOPAC v22.0.0                                **
 **                                                                           **
 *******************************************************************************
 **          Digital Object Identifier (DOI): 10.5281/zenodo.6511959          **
 **    Visit the DOI location for information on how to cite this program.    **
 *******************************************************************************

                              INDO CALCULATION RESULTS

 *******************************************************************************
 *  CALCULATION DONE:                                Sat May 14 22:08:45 2022  *
 *  INDO       - The INDO Hamiltonian to be used
 *  CISD       - C.I. USES 1 AND 2 ELECTRON EXCITATIONS
 *  C.I.=4     - 4 M.O.S TO BE USED IN C.I.
 *  EPS=20.7   - USE ANDREAS KLAMT'S COSMO IMPLICIT SOLVATION MODEL
 *  OLDGEO     - PREVIOUS GEOMETRY TO BE USED
 *  OLDFPC     - OLD FUNDAMENTAL PHYSICAL CONSTANTS TO BE USED
 *  T=         - A TIME OF 172800.0 SECONDS REQUESTED
 *  DUMP=N     - RESTART FILE WRITTEN EVERY 7200.0 SECONDS REQUESTED
 *  MECI       - M.E.C.I. WORKING TO BE PRINTED
 **********
 *  WARNING: Specified print options may not behave as expected with INDO
 **********
 *******************************************************************************
EPS=20.7 OLDGEO OLDFPC INDO CISD C.I.=4 MECI
 # calculate the excited states

  ATOM    CHEMICAL      BOND LENGTH      BOND ANGLE     TWIST ANGLE 
 NUMBER    SYMBOL       (ANGSTROMS)      (DEGREES)       (DEGREES) 
   (I)                     NA:I           NB:NA:I       NC:NB:NA:I       NA    NB    NC 
     1       C          0.00000000       0.0000000       0.0000000        0     0     0
     2       C          1.49091758  *    0.0000000       0.0000000        1     0     0
     3       O          1.21568206  *  121.0772371  *    0.0000000        1     2     0
     4       C          1.49102118  *  117.8713779  *  179.8583451  *     1     2     3
     5       H          1.10256663  *  111.4617472  *  -63.3345670  *     4     1     2
     6       H          1.10059372  *  112.5434641  *  176.3655774  *     4     1     2
     7       H          1.10184877  *  111.7908499  *   55.6289702  *     4     1     2
     8       H          1.10068795  *  112.5755479  *   -2.7429234  *     2     1     3
     9       H          1.10178054  *  111.7942999  * -123.4866214  *     2     1     3
    10       H          1.10254885  *  111.4680529  *  117.5568122  *     2     1     3
 


          CARTESIAN COORDINATES 

    NO.       ATOM           X           Y           Z

     1         C          0.0000      0.0000      0.0000
     2         C          1.4909      0.0000      0.0000
     3         O         -0.6275      1.0412      0.0000
     4         C         -0.6970     -1.3181     -0.0033
     5         H         -0.4785     -1.8877     -0.9217
     6         H         -1.7911     -1.2170      0.0614
     7         H         -0.3777     -1.9517      0.8397
     8         H          1.9135      1.0152     -0.0486
     9         H          1.9000     -0.5644     -0.8532
    10         H          1.8944     -0.4747      0.9097

           Empirical Formula: C3 H6 O  =    10 atoms



      MOLECULAR POINT GROUP   :   C2v 


      RHF CALCULATION, NO. OF DOUBLY OCCUPIED LEVELS = 12

 WARNING: INDO only performs single-point calculations

 Summary of symmetry occupancy in each shell:

 SHELL     
    1   12
    v   10
 TOTAL  22


                     MOLECULAR ORBITALS 






    ROOT NO.    1           2           3           4           5           6

           -44.14005   -34.82291   -31.71609   -21.20014   -18.73653   -18.06459
  
  
  S  C   1   0.54167    -0.15778     0.00034     0.45128    -0.00034    -0.00056
 PX  C   1  -0.10518    -0.21440    -0.30479     0.11562    -0.41932     0.00021
 PY  C   1   0.17464     0.35554    -0.18430    -0.19154    -0.25353    -0.00250
 PZ  C   1  -0.00018     0.00035    -0.00085    -0.00034    -0.00046     0.37620
  
  S  C   2   0.24354    -0.41913    -0.50293    -0.14252     0.06065    -0.00092
 PX  C   2  -0.11268     0.03728    -0.02043    -0.42640     0.38523    -0.00095
 PY  C   2   0.02221     0.08658    -0.05609    -0.11041    -0.22843    -0.00466
 PZ  C   2   0.00008    -0.00032    -0.00070     0.00028    -0.00150     0.46001
  
  S  O   3   0.64099     0.45250    -0.00037    -0.25648     0.00111     0.00358
 PX  O   3   0.12502     0.04543    -0.10199     0.09860    -0.35085    -0.00458
 PY  O   3  -0.20737    -0.07542    -0.06138    -0.16324    -0.20984     0.00214
 PZ  O   3  -0.00004     0.00008    -0.00009    -0.00022    -0.00003     0.25538
  
  S  C   4   0.24341    -0.41809     0.50370    -0.14305    -0.06105     0.00039
 PX  C   4   0.03299    -0.09396    -0.05874     0.29607    -0.02118     0.00166
 PY  C   4   0.11006     0.00740     0.00843     0.32546     0.44759    -0.00220
 PZ  C   4   0.00007     0.00031    -0.00065     0.00025     0.00078     0.45802
  
  S  H   5   0.08622    -0.21038     0.22422    -0.14560    -0.20327    -0.31451
  
  S  H   6   0.10308    -0.14066     0.27250    -0.25921     0.03106     0.02074
  
  S  H   7   0.08494    -0.21596     0.21967    -0.13959    -0.22280     0.29270
  
  S  H   8   0.10309    -0.14111    -0.27235    -0.25962    -0.03173    -0.02069
  
  S  H   9   0.08517    -0.21586    -0.21987    -0.14007     0.22175    -0.29473
  
  S  H  10   0.08612    -0.21164    -0.22342    -0.14450     0.20468     0.31537




    ROOT NO.    7           8           9          10          11          12

           -17.85804   -15.34526   -14.53938   -14.28011   -12.48777   -10.37570
  
  
  S  C   1  -0.12005     0.00135     0.03318    -0.00017     0.00042    -0.00020
 PX  C   1   0.12090     0.00114     0.19418    -0.24065    -0.00123    -0.23092
 PY  C   1  -0.19828     0.00078    -0.33063    -0.13773    -0.00113    -0.13965
 PZ  C   1  -0.00353     0.00120    -0.00018    -0.00125     0.37849     0.00063
  
  S  C   2  -0.02267     0.00061     0.02676    -0.04452    -0.00025    -0.08742
 PX  C   2  -0.04228    -0.00139    -0.17283     0.20541     0.00144     0.22422
 PY  C   2  -0.37102    -0.00140     0.32784     0.42676     0.00248    -0.03283
 PZ  C   2  -0.00480    -0.50619    -0.00071     0.00034    -0.18718     0.00224
  
  S  O   3   0.42117    -0.00162     0.21862    -0.00353     0.00004     0.00036
 PX  O   3  -0.25669     0.00185    -0.28133    -0.12106     0.00145     0.76141
 PY  O   3   0.42698    -0.00121     0.46199    -0.08371     0.00123     0.45917
 PZ  O   3  -0.00242     0.00126    -0.00012    -0.00364     0.83429    -0.00208
  
  S  C   4  -0.02271     0.00059     0.02804     0.04326     0.00018     0.08728
 PX  C   4   0.34637    -0.00082    -0.19191     0.48149     0.00311     0.07587
 PY  C   4  -0.13798    -0.00179     0.30424    -0.02892     0.00033     0.21369
 PZ  C   4  -0.00348     0.50768     0.00179     0.00344    -0.18819     0.00294
  
  S  H   5   0.10635    -0.36285    -0.16703     0.12268     0.15639    -0.06396
  
  S  H   6  -0.28950     0.02773     0.22139    -0.42716    -0.01287    -0.02738
  
  S  H   7   0.13417     0.33347    -0.19785     0.16945    -0.14379    -0.06648
  
  S  H   8  -0.29018     0.01893     0.23672     0.41818     0.01013     0.02729
  
  S  H   9   0.13523     0.33659    -0.20071    -0.15542     0.14473     0.06611
  
  S  H  10   0.10442    -0.35878    -0.17571    -0.12377    -0.15454     0.06459




    ROOT NO.   13          14          15          16          17          18

             0.52472     2.99851     4.24722     5.54150     6.63553     6.72033
  
  
  S  C   1   0.00162     0.52374    -0.00233     0.41284    -0.06743    -0.00948
 PX  C   1   0.00043     0.06007     0.24227    -0.01838     0.02674     0.00425
 PY  C   1  -0.00044    -0.09812     0.14645     0.03144    -0.04544    -0.00752
 PZ  C   1   0.83761    -0.00200    -0.00087    -0.00103     0.00011    -0.00543
  
  S  C   2  -0.00101    -0.44420    -0.47565     0.20947    -0.02806    -0.00351
 PX  C   2   0.00007     0.20747    -0.07465     0.41604    -0.07435    -0.01119
 PY  C   2   0.00007     0.00475    -0.00249     0.06802     0.48963     0.07162
 PZ  C   2  -0.05144     0.00018     0.00037     0.00014    -0.07265     0.50987
  
  S  O   3  -0.00017    -0.08155     0.00036    -0.09921     0.02014     0.00282
 PX  O   3  -0.00118    -0.09476    -0.05919    -0.10972     0.00804     0.00151
 PY  O   3  -0.00003     0.15690    -0.03654     0.18194    -0.01400    -0.00226
 PZ  O   3  -0.48776     0.00065     0.00057     0.00026     0.00011     0.00135
  
  S  C   4  -0.00020    -0.44134     0.47751     0.21145    -0.02814    -0.00381
 PX  C   4  -0.00074    -0.10117    -0.03550    -0.25202    -0.38093    -0.05657
 PY  C   4  -0.00122    -0.18204    -0.06192    -0.33724     0.28578     0.04373
 PZ  C   4  -0.05171    -0.00046    -0.00021    -0.00058     0.07275    -0.46425
  
  S  H   5   0.12172     0.17623    -0.27980    -0.19332     0.26491    -0.32046
  
  S  H   6  -0.00878     0.18235    -0.25879    -0.30519    -0.36230    -0.02798
  
  S  H   7  -0.11259     0.17788    -0.28272    -0.18641     0.20779     0.36209
  
  S  H   8   0.00682     0.18334     0.25893    -0.30705    -0.37726    -0.03362
  
  S  H   9   0.11426     0.17955     0.28236    -0.18465     0.20994     0.39547
  
  S  H  10  -0.12039     0.17855     0.27950    -0.18989     0.27715    -0.34897




    ROOT NO.   19          20          21          22

             6.86058     6.97463     9.93084    12.26142
  
  
  S  C   1   0.00019    -0.00030     0.00031     0.11462
 PX  C   1   0.00068    -0.06652     0.53897    -0.37287
 PY  C   1   0.00098    -0.03937     0.32670     0.61528
 PZ  C   1  -0.11644     0.00307     0.00132     0.00031
  
  S  C   2   0.00065     0.00616    -0.07899     0.05220
 PX  C   2   0.00122    -0.01784     0.50338    -0.22378
 PY  C   2   0.01125     0.49555     0.02963    -0.00609
 PZ  C   2   0.47857    -0.01278    -0.00143     0.00019
  
  S  O   3  -0.00005     0.00009    -0.00067    -0.27654
 PX  O   3  -0.00150    -0.01000    -0.03432    -0.27158
 PY  O   3  -0.00087    -0.00681    -0.01913     0.45121
 PZ  O   3   0.02827    -0.00150    -0.00033    -0.00003
  
  S  C   4  -0.00044    -0.00602     0.07907     0.05160
 PX  C   4   0.01602     0.44632     0.26346     0.10930
 PY  C   4  -0.00910    -0.25616     0.43152     0.19288
 PZ  C   4   0.52275    -0.01611    -0.00064     0.00030
  
  S  H   5   0.37025    -0.19793     0.09545     0.04849
  
  S  H   6  -0.01195     0.40314     0.14604     0.01706
  
  S  H   7  -0.35587    -0.22174     0.09559     0.05199
  
  S  H   8   0.00875    -0.38767    -0.14496     0.01738
  
  S  H   9   0.32494     0.20916    -0.09580     0.05206
  
  S  H  10  -0.33666     0.19432    -0.09533     0.04928


 Reference determinate nber   1 is ALPHA 1 -  12
 SINGLE excitations FROM orbs  11 to  12 INTO orbs  13 to  14
 DOUBLE excitations FROM orbs  11 to  12 INTO orbs  13 to  14
 

 CI excitations=   15:        = 15
 The lowest   15 spin-adapted configurations of multiplicity=  1
     sym   eV   cm**-1 -dets- dipole oscilator X FRAG ....Excitations named from first reference determinate
                       tot  #  Debye  strength
 
   1     -0.001      0.  1  1  5.4106 0.000000 0  0 (        )->(           )
   2      3.711  29939.  2  1  2.2286 0.000000 1  1 (  12    )->(  13       )
   3      8.305  66994.  2  1  1.1111 0.022234 1  1 (  12    )->(  14       )
   4      8.826  71200.  2  1  3.2145 0.573954 1  1 (  11    )->(  13       )
   5     10.180  82116.  2  1  0.1292 0.005211 1  1 (  11    )->(  14       )
   6     12.139  97916.  1  1  0.9536 0.000000 2  0 (  12  12)->(  13  13   )
   7     14.084 113604.  2  1  0.0372 0.000000 2  1 (  11  12)->(  13  13   )
   8     16.236 130958.  2  1  4.2928 0.000000 2  1 (  12  12)->(  13  14   )
   9     16.376 132092.  6  1  3.3071 0.000000 2  1 (  11  12)->(  13  14   )
  10     17.067 137665.  1  1  1.0186 0.000000 2  0 (  11  11)->(  13  13   )
  11     19.566 157824.  6  2  3.3071 0.000000 2  1 (  11  12)->(  13  14   )
  12     20.090 162048.  2  1  2.3214 0.000000 2  1 (  11  11)->(  13  14   )
  13     22.156 178709.  1  1  7.6322 0.000000 2  0 (  12  12)->(  14  14   )
  14     23.027 185737.  2  1  6.6465 0.000000 2  1 (  11  12)->(  14  14   )
  15     24.937 201139.  1  1  5.6607 0.000000 2  0 (  11  11)->(  14  14   )
 
 COSMO corrections to state energies
 State    Diag E (eV)   Uncorr E (eV)   Final E (eV)
     1       -0.23089       -0.22706       -0.22712
     2        3.01523        3.13565        3.01828
     3        7.09818        7.43070        7.10224
     4        7.63192        7.71286        7.63839
     5        9.18696        9.45308        9.19084
     6       11.63661       12.07285       11.63832
     7       14.30574       14.62781       14.31082
     8       15.45581       16.18064       15.45643
     9       15.77074       16.37631       15.77081
    10       18.16460       18.39786       18.17736
    11       19.85563       20.44061       19.85969
    12       20.37983       20.87194       20.38423
    13       20.86592       22.10559       20.86846
    14       21.95194       23.05839       21.95408
    15       24.06809       25.06188       24.07375

 Depression of ground-state after CI=      -1832. cm**-1 Energy=  1988.4107351 eV
 Dipole moment=  2.593852 -4.304966 -0.006875 tot=  5.026017 Debyes


  CI trans.  energy frequency wavelength oscillator--------- polarization---------  dipole  ------ components-----
 st.  symm.    eV      cm - 1       nm      strength       x          y         z       moment     x       y       z 

   2      3.2454022    26176.    382.03  0.000000  -0.736625   0.556675   0.384053  3.410882   1.760  -2.922  -0.010
   3      7.3293563    59115.    169.16  0.017053   0.858215   0.513282  -0.002932  0.817142   0.398  -0.714  -0.003
   4      7.8655135    63440.    157.63  0.386957  -0.515873   0.856665   0.000675  6.114033   3.149  -5.241  -0.020
   5      9.4179572    75961.    131.65  0.006228  -0.006451  -0.024209  -0.999686  1.183709   0.582  -1.031  -0.006
   6     11.8654360    95701.    104.49  0.000006   0.521115  -0.853483   0.002337  0.942294  -0.485   0.808  -0.010
   7     14.5379428   117257.     85.28  0.000001   0.597287  -0.794471  -0.109835  1.173500  -0.609   1.003  -0.015
   8     15.6835529   126497.     79.05  0.000019   0.015208  -0.025704   0.999554  4.275313  -2.228   3.649  -0.002
   9     15.9979259   129032.     77.50  0.000000  -0.860662  -0.508954  -0.015047  3.301311  -1.731   2.811  -0.005
  10     18.4044764   148442.     67.37  0.059162  -0.514369   0.857563   0.003156  1.562699  -0.814   1.334  -0.017
  11     20.0868098   162011.     61.72  0.004864   0.860005   0.510274  -0.003357  5.240154  -2.730   4.473  -0.006
  12     20.6113483   166242.     60.15  0.000044   0.019135  -0.049413   0.998595  3.646843  -1.913   3.105  -0.011
  13     21.0955829   170148.     58.77  0.002542   0.515744  -0.856742  -0.000884  7.568249  -3.952   6.454   0.007
  14     22.1812015   178904.     55.90  0.000000  -0.916183   0.378808   0.130816  6.622964  -3.469   5.642   0.004
  15     24.3008739   196000.     51.02  0.000068   0.497771  -0.867250  -0.010093  5.670128  -2.981   4.823  -0.001
 
 Polarizability (au  ) xx=    4.34 xy=   -5.99 yy=   10.68 xz=   -0.01 yz=    0.01 zz=    0.16
 Polarizability (A**3) xx=    0.64 xy=   -0.89 yy=    1.58 xz=   -0.00 yz=    0.00 zz=    0.02
 
 
 Major CI contributions to CI states
 
State    1  0.0000     CI coeff  CI percent
    Config       1  -0.99195168  0.98396813
    Config       4   0.04367924  0.00190788
    Config      10   0.11739925  0.01378258
 Total coeff printed             0.99965859
  
State    2  3.2454     CI coeff  CI percent
    Config       2   0.97381733  0.94832019
    Config       7   0.22727673  0.05165471
 Total coeff printed             0.99997491
  
State    3  7.3294     CI coeff  CI percent
    Config       3  -0.96428260  0.92984093
    Config      11   0.26482100  0.07013016
 Total coeff printed             0.99997109
  
State    4  7.8655     CI coeff  CI percent
    Config       1   0.07981120  0.00636983
    Config       4   0.94330623  0.88982664
    Config       6   0.04240563  0.00179824
    Config      10   0.31928973  0.10194593
 Total coeff printed             0.99994064
  
State    5  9.4180     CI coeff  CI percent
    Config       5   0.96617271  0.93348970
    Config      12  -0.25716581  0.06613425
 Total coeff printed             0.99962395
  
State    6 11.8654     CI coeff  CI percent
    Config       6   0.99384699  0.98773185
    Config      10  -0.09725129  0.00945781
    Config      13  -0.05131645  0.00263338
 Total coeff printed             0.99982304
  
State    7 14.5379     CI coeff  CI percent
    Config       2  -0.22644646  0.05127800
    Config       7   0.97171430  0.94422868
    Config      14  -0.06698457  0.00448693
 Total coeff printed             0.99999361
  
State    8 15.6836     CI coeff  CI percent
    Config       8   0.99422990  0.98849309
    Config      12  -0.10682804  0.01141223
 Total coeff printed             0.99990532
  
State    9 15.9979     CI coeff  CI percent
    Config       9   0.99997092  0.99994185
 Total coeff printed             0.99994185
  
State   10 18.4045     CI coeff  CI percent
    Config       1  -0.09619458  0.00925340
    Config       4   0.32661489  0.10667729
    Config       6  -0.08737741  0.00763481
    Config      10  -0.93123184  0.86719274
    Config      15   0.09568710  0.00915602
 Total coeff printed             0.99991426
  
State   11 20.0868     CI coeff  CI percent
    Config       3  -0.26483644  0.07013834
    Config      11  -0.96428018  0.92983626
 Total coeff printed             0.99997460
  
State   12 20.6113     CI coeff  CI percent
    Config       5   0.25775151  0.06643584
    Config       8   0.10540755  0.01111075
    Config      12   0.96043718  0.92243958
 Total coeff printed             0.99998617
  
State   13 21.0956     CI coeff  CI percent
    Config       6  -0.05089732  0.00259054
    Config      13  -0.98742686  0.97501180
    Config      15   0.14874904  0.02212628
 Total coeff printed             0.99972861
  
State   14 22.1812     CI coeff  CI percent
    Config       7   0.06411519  0.00411076
    Config      14   0.99774079  0.99548669
 Total coeff printed             0.99959745
  
State   15 24.3009     CI coeff  CI percent
    Config      10   0.08671061  0.00751873
    Config      13   0.14858917  0.02207874
    Config      15   0.98418017  0.96861062
 Total coeff printed             0.99820809
  

 **********************
 *                    *
 * JOB ENDED NORMALLY *
 *                    *
 **********************



 TOTAL JOB TIME:             2.58 SECONDS

 == MOPAC DONE ==
