 *******************************************************************************
 ** Site#: 37037        For non-commercial use only           Version 21.158W **
 *******************************************************************************
 ** Cite this program as: MOPAC2016, Version: 21.158W, James J. P. Stewart,   **
 ** Stewart Computational Chemistry, web: HTTP://OpenMOPAC.net. Days left: 361**
 *******************************************************************************
 **                                                                           **
 **                                MOPAC2016                                  **
 **                                                                           **
 *******************************************************************************

                              PM7 CALCULATION RESULTS

 *******************************************************************************
 *  CALCULATION DONE:                                Fri Jun 11 08:11:45 2021  *
 *  SYMMETRY   - SYMMETRY CONDITIONS TO BE IMPOSED
 *
 *
 *
 *                 CHARGE ON SYSTEM = +1
 *
 *
 *
 *  EPS=78.4   - USE ANDREAS KLAMT'S COSMO IMPLICIT SOLVATION MODEL
 *  PRECISE    - TIGHTER CRITERIA TO BE USED
 *  T=         - A TIME OF 172800.0 SECONDS REQUESTED
 *  DUMP=N     - RESTART FILE WRITTEN EVERY 7200.0 SECONDS REQUESTED
 *******************************************************************************



                    PARAMETER DEPENDENCE DATA

        REFERENCE ATOM      FUNCTION NO.    DEPENDENT ATOM(S)
            2                  1               3

             DESCRIPTIONS OF THE FUNCTIONS USED
   1      BOND LENGTH    IS SET EQUAL TO THE REFERENCE BOND LENGTH   
 
 symmetry eps=78.4 charge=1 precise
 [NH4](+) + NH3 <=> NH3 + [NH4](+)

  ATOM    CHEMICAL      BOND LENGTH      BOND ANGLE     TWIST ANGLE 
 NUMBER    SYMBOL       (ANGSTROMS)      (DEGREES)       (DEGREES) 
   (I)                     NA:I           NB:NA:I       NC:NB:NA:I       NA    NB    NC 
     1       H          0.00000000       0.0000000       0.0000000        0     0     0
     2       N          1.52935199  *    0.0000000  *    0.0000000  *     1     0     0
     3       N          1.52935199     111.2204676  *    0.0000000  *     1     2     0
     4       H          1.09534441  *  111.2971548  *  180.0000000  *     2     1     3
     5       H          1.09534441  *  111.2971548  *  180.0000000  *     3     1     2
     6       H          1.09525991  *  111.3978555  *  -59.9798968  *     2     1     3
     7       H          1.09525991  *  111.3978555  *   59.9798968  *     2     1     3
     8       H          1.09525991  *  111.3978555  *   59.9798968  *     3     1     2
     9       H          1.09525991  *  111.3978555  *  -59.9798968  *     3     1     2
 


          CARTESIAN COORDINATES 

    NO.       ATOM           X           Y           Z

     1         H          0.0000      0.0000      0.0000
     2         N          1.5294      0.0000      0.0000
     3         N         -0.5536      1.4257      0.0000
     4         H          1.9272     -1.0205      0.0000
     5         H         -1.6489      1.4271     -0.0000
     6         H          1.9289      0.5102     -0.8830
     7         H          1.9289      0.5102      0.8830
     8         H         -0.2226      1.9828     -0.8830
     9         H         -0.2226      1.9828      0.8830

 General Reference for PM7:
 "Optimization of Parameters for Semiempirical Methods VI: More Modifications to the 
 NDDO Approximations and Re-optimization of Parameters", J. J. P. Stewart, J. Mol. Mod., 1:32, 19 (2013)
 https://link.springer.com/article/10.1007/s00894-012-1667-x

           Empirical Formula: H7 N2  =     9 atoms



      MOLECULAR POINT GROUP   :   C2v 


      RHF CALCULATION, NO. OF DOUBLY OCCUPIED LEVELS = 8


          Geometry optimization using EF

          DIAGONAL MATRIX USED AS START HESSIAN

 CYCLE:     1 TIME:   0.014 TIME LEFT:  2.00D  GRAD.:   143.009 HEAT:  97.87136
 CYCLE:     2 TIME:   0.000 TIME LEFT:  2.00D  GRAD.:    70.600 HEAT:  82.24615
 CYCLE:     3 TIME:   0.016 TIME LEFT:  2.00D  GRAD.:    55.259 HEAT:  76.20586
 CYCLE:     4 TIME:   0.016 TIME LEFT:  2.00D  GRAD.:    39.324 HEAT:  73.07045
 CYCLE:     5 TIME:   0.000 TIME LEFT:  2.00D  GRAD.:    29.325 HEAT:  67.02683
 CYCLE:     6 TIME:   0.016 TIME LEFT:  2.00D  GRAD.:    14.582 HEAT:  62.99066
 CYCLE:     7 TIME:   0.016 TIME LEFT:  2.00D  GRAD.:    18.301 HEAT:  62.29291
 CYCLE:     8 TIME:   0.000 TIME LEFT:  2.00D  GRAD.:    13.532 HEAT:  61.89588
 CYCLE:     9 TIME:   0.016 TIME LEFT:  2.00D  GRAD.:     3.140 HEAT:  61.70616
 CYCLE:    10 TIME:   0.000 TIME LEFT:  2.00D  GRAD.:     0.292 HEAT:  61.67952
 CYCLE:    11 TIME:   0.016 TIME LEFT:  2.00D  GRAD.:     0.198 HEAT:  61.67792
 CYCLE:    12 TIME:   0.016 TIME LEFT:  2.00D  GRAD.:     0.212 HEAT:  61.67645
 CYCLE:    13 TIME:   0.000 TIME LEFT:  2.00D  GRAD.:     0.225 HEAT:  61.67918
 CYCLE:    14 TIME:   0.016 TIME LEFT:  2.00D  GRAD.:     0.286 HEAT:  61.68481
 CYCLE:    15 TIME:   0.016 TIME LEFT:  2.00D  GRAD.:     0.172 HEAT:  61.68605
 CYCLE:    16 TIME:   0.000 TIME LEFT:  2.00D  GRAD.:     0.181 HEAT:  61.66993
 CYCLE:    17 TIME:   0.016 TIME LEFT:  2.00D  GRAD.:     0.107 HEAT:  61.67170
 CYCLE:    18 TIME:   0.000 TIME LEFT:  2.00D  GRAD.:     0.121 HEAT:  61.66298
 CYCLE:    19 TIME:   0.016 TIME LEFT:  2.00D  GRAD.:     0.117 HEAT:  61.66922
 CYCLE:    20 TIME:   0.016 TIME LEFT:  2.00D  GRAD.:     0.663 HEAT:  61.65794
 CYCLE:    21 TIME:   0.016 TIME LEFT:  2.00D  GRAD.:     0.273 HEAT:  61.65435
 CYCLE:    22 TIME:   0.031 TIME LEFT:  2.00D  GRAD.:     0.130 HEAT:  61.65628
 CYCLE:    23 TIME:   0.047 TIME LEFT:  2.00D  GRAD.:     0.112 HEAT:  61.65627

     TRUST RADIUS NOW LESS THAN  0.00010 OPTIMIZATION TERMINATING
      THE GEOMETRY MAY NOT BE COMPLETELY OPTIMIZED
      (TO CONTINUE, ADD 'LET DDMIN=0.0' TO THE KEYWORD LINE)

 -------------------------------------------------------------------------------
 symmetry eps=78.4 charge=1 precise
 [NH4](+) + NH3 <=> NH3 + [NH4](+)



     GEOMETRY OPTIMISED USING EIGENVECTOR FOLLOWING (EF).     
     SCF FIELD WAS ACHIEVED                                   


                              PM7 CALCULATION
                                                       MOPAC2016 (Version: 21.158W)
                                                       Fri Jun 11 08:11:46 2021
                                                       No. of days remaining = 361




          FINAL HEAT OF FORMATION =         61.65435 KCAL/MOL =     257.96181 KJ/MOL
          VAN DER WAALS AREA      =         82.71 SQUARE ANGSTROMS


          TOTAL ENERGY            =       -463.59365 EV
          ELECTRONIC ENERGY       =       -410.38403 EV  POINT GROUP:     D3h 
          CORE-CORE REPULSION     =        -53.20962 EV

          DIELECTRIC ENERGY       =         -2.81495 EV
          COSMO AREA              =         82.71 SQUARE ANGSTROMS
          COSMO VOLUME            =         59.43 CUBIC ANGSTROMS

          GRADIENT NORM           =          0.27310 = 0.09103 PER ATOM
          IONIZATION POTENTIAL    =         11.337954 EV
          HOMO LUMO ENERGIES (EV) =        -11.338  3.153
          NO. OF FILLED LEVELS    =          8
          MOLECULAR WEIGHT        =         35.0687

          MOLECULAR DIMENSIONS (Angstroms)

            Atom       Atom       Distance
            H     8    H     7     3.70821
            H     6    H     9     2.94538
            H     6    H     5     1.42368


          SCF CALCULATIONS        =         38
 
          WALL-CLOCK TIME         =          0.359 SECONDS
          COMPUTATION TIME        =          0.359 SECONDS




  ATOM    CHEMICAL      BOND LENGTH      BOND ANGLE     TWIST ANGLE 
 NUMBER    SYMBOL       (ANGSTROMS)      (DEGREES)       (DEGREES) 
   (I)                     NA:I           NB:NA:I       NC:NB:NA:I       NA    NB    NC 
     1       H          0.00000000       0.0000000       0.0000000        0     0     0
     2       N          1.31021237  *   -0.0000000  *   -0.0000000  *     1     0     0
     3       N          1.31021237     180.0428239  *    0.0000000  *     1     2     0
     4       H          1.01165009  *  110.1419960  * -179.9956712  *     2     1     3
     5       H          1.01121816  *  110.2874583  * -179.7976115  *     3     1     2
     6       H          1.01124313  *  110.3848691  *  -60.1482622  *     2     1     3
     7       H          1.01145205  *  110.3986040  *   60.0184976  *     2     1     3
     8       H          1.01169294  *  110.2938803  *   60.2181990  *     3     1     2
     9       H          1.01117896  *  110.3004762  *  -59.7954241  *     3     1     2

                             CARTESIAN COORDINATES

   1    H        0.000000000     0.000000000     0.000000000
   2    N        1.310212372     0.000000000     0.000000000
   3    N       -1.310212006    -0.000979276     0.000000000
   4    H        1.658571986     0.949779703     0.000071758
   5    H       -1.661540841     0.947239575    -0.003350378
   6    H        1.662453143    -0.471830673     0.822140454
   7    H        1.662753185    -0.473747107    -0.821166187
   8    H       -1.660750640    -0.472554999     0.823566392
   9    H       -1.660677216    -0.478356163    -0.819614747


           Empirical Formula: H7 N2  =     9 atoms



      MOLECULAR POINT GROUP   :   D3h 


                  EIGENVALUES  
 -37.83772 -36.00493 -16.92957 -16.92458 -16.69762 -16.69286 -16.62233 -11.33795
   3.15276   4.39128   6.10007   6.21131   6.21433   6.21811   6.22765


              NET ATOMIC CHARGES AND DIPOLE CONTRIBUTIONS

  ATOM NO.   TYPE          CHARGE      No. of ELECS.   s-Pop       p-Pop       
    1          H           0.382023        0.6180     0.61798
    2          N          -0.539175        5.5392     1.54854     3.99064
    3          N          -0.538900        5.5389     1.54843     3.99047
    4          H           0.283232        0.7168     0.71677
    5          H           0.282308        0.7177     0.71769
    6          H           0.281712        0.7183     0.71829
    7          H           0.283327        0.7167     0.71667
    8          H           0.283350        0.7166     0.71665
    9          H           0.282123        0.7179     0.71788
 DIPOLE           X         Y         Z       TOTAL
 POINT-CHG.     0.003     0.006     0.000     0.007
 HYBRID        -0.000     0.002     0.001     0.002
 SUM            0.003     0.008     0.001     0.009


          ATOMIC ORBITAL ELECTRON POPULATIONS

     Atom    s        px        py        pz   
    1  H   0.61798
    2  N   1.54854   1.50215   1.24471   1.24378
    3  N   1.54843   1.50253   1.24391   1.24403
    4  H   0.71677
    5  H   0.71769
    6  H   0.71829
    7  H   0.71667
    8  H   0.71665
    9  H   0.71788
 *******************************************************************************
 ** Site#: 37037        For non-commercial use only           Version 21.158W **
 *******************************************************************************
 ** Cite this program as: MOPAC2016, Version: 21.158W, James J. P. Stewart,   **
 ** Stewart Computational Chemistry, web: HTTP://OpenMOPAC.net. Days left: 361**
 *******************************************************************************
 **                                                                           **
 **                                MOPAC2016                                  **
 **                                                                           **
 *******************************************************************************

                              PM7 CALCULATION RESULTS

 *******************************************************************************
 *  CALCULATION DONE:                                Fri Jun 11 08:11:46 2021  *
 *
 *
 *
 *                 CHARGE ON SYSTEM = +1
 *
 *
 *
 *  EPS=78.4   - USE ANDREAS KLAMT'S COSMO IMPLICIT SOLVATION MODEL
 *  OLDGEO     - PREVIOUS GEOMETRY TO BE USED
 *  FORCE      - FORCE CALCULATION SPECIFIED
 *  T=         - A TIME OF 172800.0 SECONDS REQUESTED
 *  DUMP=N     - RESTART FILE WRITTEN EVERY 7200.0 SECONDS REQUESTED
 *  ISOTOPE    - SAVE THE FORCE MATRIX FOR USE LATER
 *******************************************************************************
oldgeo force eps=78.4 charge=1 isotope
 [NH4](+) + NH3 <=> NH3 + [NH4](+)

  ATOM    CHEMICAL      BOND LENGTH      BOND ANGLE     TWIST ANGLE 
 NUMBER    SYMBOL       (ANGSTROMS)      (DEGREES)       (DEGREES) 
   (I)                     NA:I           NB:NA:I       NC:NB:NA:I       NA    NB    NC 
     1       H          0.00000000       0.0000000       0.0000000        0     0     0
     2       N          1.31021237  *   -0.0000000  *   -0.0000000  *     1     0     0
     3       N          1.31021237     180.0428239  *    0.0000000  *     1     2     0
     4       H          1.01165009  *  110.1419960  * -179.9956712  *     2     1     3
     5       H          1.01121816  *  110.2874583  * -179.7976115  *     3     1     2
     6       H          1.01124313  *  110.3848691  *  -60.1482622  *     2     1     3
     7       H          1.01145205  *  110.3986040  *   60.0184976  *     2     1     3
     8       H          1.01169294  *  110.2938803  *   60.2181990  *     3     1     2
     9       H          1.01117896  *  110.3004762  *  -59.7954241  *     3     1     2
 


          CARTESIAN COORDINATES 

    NO.       ATOM           X           Y           Z

     1         H          0.0000      0.0000      0.0000
     2         N          1.3102      0.0000      0.0000
     3         N         -1.3102     -0.0010      0.0000
     4         H          1.6586      0.9498      0.0001
     5         H         -1.6615      0.9472     -0.0034
     6         H          1.6625     -0.4718      0.8221
     7         H          1.6628     -0.4737     -0.8212
     8         H         -1.6608     -0.4726      0.8236
     9         H         -1.6607     -0.4784     -0.8196

 General Reference for PM7:
 "Optimization of Parameters for Semiempirical Methods VI: More Modifications to the 
 NDDO Approximations and Re-optimization of Parameters", J. J. P. Stewart, J. Mol. Mod., 1:32, 19 (2013)
 https://link.springer.com/article/10.1007/s00894-012-1667-x

           Empirical Formula: H7 N2  =     9 atoms



      MOLECULAR POINT GROUP   :   D3h 


      RHF CALCULATION, NO. OF DOUBLY OCCUPIED LEVELS = 8



          HEAT OF FORMATION =      61.654351 KCALS/MOLE


          CARTESIAN COORDINATE DERIVATIVES

   NUMBER  ATOM         X            Y            Z

     1       H     -0.081226    -0.136759    -0.000083
     2       N      0.186736     0.254606     0.195830
     3       N     -0.082519    -0.084826     0.050033
     4       H     -0.062385    -0.007310    -0.070746
     5       H      0.051124     0.048709    -0.002166
     6       H      0.049945    -0.095723    -0.117784
     7       H     -0.054167    -0.000830    -0.006179
     8       H     -0.036644     0.054287    -0.018560
     9       H      0.029106    -0.031973    -0.030172
 


          GRADIENT NORM =   0.47928


          TIME FOR SCF CALCULATION =    0.02

          TIME FOR DERIVATIVES     =    0.00

          MOLECULAR WEIGHT =   35.07



          ROTATIONAL CONSTANTS IN CM(-1)

          A =    3.09800054   B =    0.24975873   C =    0.24974943



           PRINCIPAL MOMENTS OF INERTIA IN UNITS OF 10**(-40)*GRAM-CM**2

          A =        9.0358   B =      112.0793   C =      112.0834


          ORIENTATION OF MOLECULE IN FORCE CALCULATION

    NO.       ATOM         X         Y         Z

     1          H      -0.0000   -0.0004    0.0000
     2          N       1.3102   -0.0004    0.0000
     3          N      -1.3102    0.0006    0.0000
     4          H       1.6585   -0.9502   -0.0000
     5          H      -1.6616   -0.9476    0.0034
     6          H       1.6624    0.4715   -0.8221
     7          H       1.6627    0.4734    0.8212
     8          H      -1.6608    0.4722   -0.8235
     9          H      -1.6607    0.4780    0.8197


    FIRST DERIVATIVES WILL BE USED IN THE CALCULATION OF SECOND DERIVATIVES

          ESTIMATED TIME TO COMPLETE CALCULATION =        0.84 SECONDS

    FOR POINT-GROUP D3h  THERE ARE  12 UNIQUE SYMMETRY FUNCTIONS.

 STEP:   1 TIME =     0.02 SECS, INTEGRAL =      0.02 TIME LEFT: 172799.97
 STEP:   2 TIME =     0.02 SECS, INTEGRAL =      0.03 TIME LEFT: 172799.95
 STEP:   3 TIME =     0.02 SECS, INTEGRAL =      0.05 TIME LEFT: 172799.94
 STEP:   4 TIME =     0.02 SECS, INTEGRAL =      0.06 TIME LEFT: 172799.92
 STEP:   5 TIME =     0.02 SECS, INTEGRAL =      0.08 TIME LEFT: 172799.91
 STEP:   6 TIME =     0.02 SECS, INTEGRAL =      0.09 TIME LEFT: 172799.89
 STEP:   7                       INTEGRAL =      0.09 TIME LEFT: 172799.89
 STEP:   8                       INTEGRAL =      0.09 TIME LEFT: 172799.89
 STEP:   9                       INTEGRAL =      0.09 TIME LEFT: 172799.89
 STEP:  10 TIME =     0.02 SECS, INTEGRAL =      0.11 TIME LEFT: 172799.88
 STEP:  11 TIME =     0.02 SECS, INTEGRAL =      0.12 TIME LEFT: 172799.86
 STEP:  12 TIME =     0.02 SECS, INTEGRAL =      0.14 TIME LEFT: 172799.84
 STEP:  13                       INTEGRAL =      0.14 TIME LEFT: 172799.84
 STEP:  14                       INTEGRAL =      0.14 TIME LEFT: 172799.84
 STEP:  15                       INTEGRAL =      0.14 TIME LEFT: 172799.84
 STEP:  16                       INTEGRAL =      0.14 TIME LEFT: 172799.84
 STEP:  17                       INTEGRAL =      0.14 TIME LEFT: 172799.84
 STEP:  18                       INTEGRAL =      0.14 TIME LEFT: 172799.84
 STEP:  19                       INTEGRAL =      0.14 TIME LEFT: 172799.84
 STEP:  20                       INTEGRAL =      0.14 TIME LEFT: 172799.84
 STEP:  21                       INTEGRAL =      0.14 TIME LEFT: 172799.84
 STEP:  22                       INTEGRAL =      0.14 TIME LEFT: 172799.84
 STEP:  23                       INTEGRAL =      0.14 TIME LEFT: 172799.84
 STEP:  24                       INTEGRAL =      0.14 TIME LEFT: 172799.84
 STEP:  25                       INTEGRAL =      0.14 TIME LEFT: 172799.84
 STEP:  26                       INTEGRAL =      0.14 TIME LEFT: 172799.84
 STEP:  27                       INTEGRAL =      0.14 TIME LEFT: 172799.84

(To convert to Hartree/Bohr^2, multiply by (10^(-21) x N x a0^2)/(4.184 x 627.51) =  0.0642)


           FORCE MATRIX IN MILLIDYNES/ANGSTROM


                  H  1       N  2       N  3       H  4       H  5       H  6
 ------------------------------------------------------------------------------
     H    1   1.425978
     N    2   0.780645  10.294941
     N    3   0.705739   1.244347  10.294941
     H    4   0.287731   3.807604   0.066042   4.347786
     H    5   0.265297   0.081578   3.743178   0.062236   4.347786
     H    6   0.275765   3.745425   0.118698   0.670869   0.007466   4.347786
     H    7   0.287296   3.825838   0.074910   0.614809   0.027013   0.670869
     H    8   0.268133   0.074910   3.825838   0.027013   0.614809   0.062236
     H    9   0.257235   0.118698   3.745425   0.007466   0.670869   0.027013


                  H  7       H  8       H  9
 ------------------------------------------
     H    7   4.347786
     H    8   0.007466   4.347786
     H    9   0.062236   0.670869   4.347786


          HEAT OF FORMATION =      61.654351 KCALS/MOLE

          ZERO POINT ENERGY      44.584 KCAL/MOL

         NOTE: SYSTEM IS NOT A GROUND STATE, THEREFORE ZERO POINT
         ENERGY IS NOT MEANINGFULL. ZERO POINT ENERGY PRINTED
         DOES NOT INCLUDE THE  1 IMAGINARY FREQUENCIES


           NORMAL COORDINATE ANALYSIS (Total motion = 1 Angstrom)


   Root No.       1         2         3         4         5         6         7         8

                 1 A2"     1 E'      1 E'      1 A1"     1 A1'     1 E"      1 E"      2 E'  

               -1108.5     322.4     322.4     336.6     549.7     644.9     644.9    1380.5
  
           1    0.7449   -0.0001   -0.0000   -0.0000    0.0000    0.0000   -0.0000   -0.0000
           2   -0.0003   -0.1738   -0.0134   -0.0000   -0.0000    0.0000    0.0000   -0.0858
           3   -0.0000   -0.0131    0.1778   -0.0000    0.0000    0.0000   -0.0000    0.4317
           4   -0.0202   -0.0000   -0.0000   -0.0000   -0.1241   -0.0000    0.0000    0.0000
           5    0.0000   -0.0067   -0.0005   -0.0000    0.0001   -0.0303    0.0124    0.0049
           6    0.0000   -0.0005    0.0068    0.0000    0.0000    0.0128    0.0293   -0.0244
           7   -0.0202   -0.0000   -0.0000    0.0000    0.1241    0.0000   -0.0000    0.0000
           8    0.0000   -0.0067   -0.0005    0.0000   -0.0001    0.0303   -0.0124    0.0048
           9   -0.0000   -0.0005    0.0068   -0.0000   -0.0000   -0.0128   -0.0293   -0.0244
          10   -0.0307    0.1801    0.0142    0.0000   -0.1253    0.2092   -0.0850   -0.0207
          11   -0.0184    0.0611    0.0047    0.0003   -0.0010    0.0512   -0.0209   -0.0051
          12    0.0000    0.0044   -0.0597    0.1667    0.0000   -0.0212   -0.0488    0.0565
          13   -0.0307   -0.1800   -0.0142   -0.0000    0.1253    0.2092   -0.0850    0.0207
          14    0.0184    0.0612    0.0047   -0.0003   -0.0011   -0.0514    0.0210   -0.0051
          15   -0.0001    0.0044   -0.0597   -0.1667    0.0000    0.0213    0.0489    0.0565
          16   -0.0307   -0.0780   -0.1666   -0.0001   -0.1253   -0.1806   -0.1330    0.0999
          17    0.0092    0.0590    0.0058   -0.1445    0.0006    0.0509   -0.0203    0.0035
          18   -0.0160    0.0033   -0.0620   -0.0831   -0.0009   -0.0219   -0.0494    0.0309
          19   -0.0307   -0.1020    0.1525    0.0001   -0.1253   -0.0286    0.2180   -0.0792
          20    0.0092    0.0592    0.0033    0.1442    0.0006    0.0506   -0.0211   -0.0230
          21    0.0159    0.0057   -0.0618   -0.0836    0.0009   -0.0212   -0.0497    0.0363
          22   -0.0307    0.0780    0.1667    0.0001    0.1253   -0.1806   -0.1330   -0.0999
          23   -0.0091    0.0590    0.0057    0.1445    0.0005   -0.0508    0.0204    0.0036
          24    0.0160    0.0034   -0.0620    0.0831   -0.0009    0.0219    0.0493    0.0309
          25   -0.0307    0.1021   -0.1524   -0.0001    0.1253   -0.0286    0.2180    0.0791
          26   -0.0092    0.0592    0.0035   -0.1442    0.0005   -0.0505    0.0210   -0.0231
          27   -0.0159    0.0057   -0.0618    0.0836    0.0009    0.0212    0.0496    0.0363


   Root No.       9        10        11        12        13        14        15        16

                 2 E'      2 A2"     2 A1'     3 E'      3 E'      2 E"      2 E"      4 E'  

                1380.5    1387.2    1414.2    1593.4    1593.4    1595.2    1595.2    2708.9
  
           1    0.0002    0.0188    0.0000   -0.0000   -0.0000    0.0000   -0.0000    0.0000
           2    0.4311   -0.0000    0.0000   -0.0301   -0.0366   -0.0000   -0.0000    0.0055
           3    0.0857    0.0000   -0.0000   -0.0370    0.0298   -0.0000   -0.0000   -0.0086
           4   -0.0000   -0.0321   -0.0322   -0.0000   -0.0000    0.0000   -0.0000    0.0000
           5   -0.0244    0.0000    0.0000   -0.0110   -0.0135    0.0208   -0.0012    0.0118
           6   -0.0049   -0.0000   -0.0000   -0.0136    0.0109   -0.0012   -0.0204   -0.0185
           7   -0.0000   -0.0321    0.0322   -0.0000   -0.0000   -0.0000    0.0000    0.0000
           8   -0.0244    0.0000   -0.0000   -0.0110   -0.0134   -0.0209    0.0012    0.0118
           9   -0.0048    0.0000    0.0000   -0.0136    0.0109    0.0012    0.0204   -0.0185
          10    0.1032    0.1454    0.1474   -0.0495   -0.0605    0.0749   -0.0042    0.0437
          11    0.0258    0.0472    0.0507   -0.0195   -0.0244    0.0296   -0.0012   -0.1194
          12    0.0113   -0.0000   -0.0001    0.1626   -0.1305    0.0127    0.2201   -0.0125
          13   -0.1032    0.1453   -0.1474    0.0494    0.0605    0.0750   -0.0041   -0.0438
          14    0.0259   -0.0473    0.0509   -0.0195   -0.0244   -0.0297    0.0012   -0.1195
          15    0.0113    0.0002   -0.0001    0.1628   -0.1304   -0.0125   -0.2201   -0.0125
          16   -0.0337    0.1454    0.1474   -0.0280    0.0727   -0.0412   -0.0614   -0.0812
          17    0.0515   -0.0237   -0.0254    0.1751    0.0499   -0.1550    0.1170   -0.1097
          18    0.0199    0.0409    0.0441    0.0877    0.0623   -0.1079    0.0392    0.1924
          19   -0.0695    0.1454    0.1474    0.0776   -0.0121   -0.0338    0.0656    0.0374
          20    0.0461   -0.0237   -0.0256    0.0128    0.1797   -0.1670   -0.0990    0.0626
          21   -0.0066   -0.0409   -0.0439   -0.0433   -0.0986    0.1123    0.0274    0.0817
          22    0.0337    0.1454   -0.1474    0.0283   -0.0726   -0.0410   -0.0615    0.0810
          23    0.0515    0.0234   -0.0252    0.1750    0.0500    0.1552   -0.1166   -0.1097
          24    0.0199   -0.0410    0.0441    0.0876    0.0622    0.1080   -0.0390    0.1923
          25    0.0696    0.1454   -0.1474   -0.0776    0.0122   -0.0338    0.0656   -0.0373
          26    0.0461    0.0237   -0.0254    0.0127    0.1796    0.1672    0.0989    0.0625
          27   -0.0066    0.0408   -0.0439   -0.0432   -0.0985   -0.1124   -0.0274    0.0815


   Root No.      17        18        19        20        21

                 4 E'      3 E"      3 E"      3 A1'     3 A2" 

                2708.9    2711.8    2711.8    2784.6    2800.1
  
           1   -0.0000    0.0000   -0.0000   -0.0000    0.0189
           2   -0.0094    0.0000   -0.0000   -0.0000   -0.0000
           3   -0.0060   -0.0000    0.0000   -0.0000   -0.0000
           4   -0.0000   -0.0000   -0.0000    0.0094    0.0084
           5   -0.0204   -0.0017   -0.0221    0.0000    0.0000
           6   -0.0130    0.0241   -0.0015    0.0000    0.0000
           7   -0.0000    0.0000    0.0000   -0.0094    0.0084
           8   -0.0204    0.0017    0.0221   -0.0000   -0.0000
           9   -0.0130   -0.0241    0.0015   -0.0000   -0.0000
          10   -0.0752   -0.0062   -0.0806   -0.0446   -0.0421
          11    0.2056    0.0173    0.2240    0.1573    0.1551
          12   -0.0092    0.0179   -0.0015   -0.0003   -0.0000
          13    0.0754   -0.0063   -0.0807    0.0447   -0.0423
          14    0.2055   -0.0174   -0.2239    0.1573   -0.1551
          15   -0.0093   -0.0178    0.0016   -0.0003    0.0005
          16   -0.0041    0.0793    0.0354   -0.0447   -0.0422
          17   -0.0198    0.1164    0.0362   -0.0783   -0.0775
          18    0.0014   -0.1870   -0.0926    0.1364    0.1343
          19    0.0794   -0.0731    0.0453   -0.0447   -0.0422
          20    0.1021   -0.1103    0.0513   -0.0789   -0.0775
          21    0.1912   -0.1706    0.1155   -0.1360   -0.1343
          22    0.0041    0.0793    0.0354    0.0446   -0.0422
          23   -0.0198   -0.1167   -0.0362   -0.0784    0.0771
          24    0.0014    0.1871    0.0925    0.1364   -0.1345
          25   -0.0793   -0.0731    0.0453    0.0446   -0.0422
          26    0.1021    0.1106   -0.0513   -0.0790    0.0780
          27    0.1913    0.1706   -0.1156   -0.1361    0.1340


           MASS-WEIGHTED COORDINATE ANALYSIS (NORMAL COORDINATES)


   Root No.       1         2         3         4         5         6         7         8

                 1 A2"     1 E'      1 E'      1 A1"     1 A1'     1 E"      1 E"      2 E'  

               -1108.5     322.4     322.4     336.6     549.7     644.9     644.9    1380.5
  
           1    0.9833   -0.0002   -0.0000   -0.0000    0.0000    0.0000   -0.0000   -0.0001
           2   -0.0004   -0.4472   -0.0335   -0.0000   -0.0000    0.0000    0.0000   -0.1695
           3   -0.0000   -0.0335    0.4472   -0.0000    0.0000    0.0000   -0.0000    0.8526
           4   -0.0993   -0.0000   -0.0000   -0.0000   -0.6402   -0.0001    0.0000    0.0000
           5    0.0000   -0.0638   -0.0049   -0.0000    0.0003   -0.2506    0.1057    0.0358
           6    0.0000   -0.0049    0.0638    0.0001    0.0000    0.1057    0.2506   -0.1798
           7   -0.0993   -0.0000   -0.0000    0.0000    0.6402    0.0001   -0.0000    0.0000
           8    0.0001   -0.0638   -0.0047    0.0000   -0.0003    0.2506   -0.1057    0.0357
           9   -0.0000   -0.0046    0.0638   -0.0001   -0.0000   -0.1057   -0.2506   -0.1799
          10   -0.0405    0.4634    0.0355    0.0000   -0.1733    0.4648   -0.1949   -0.0410
          11   -0.0243    0.1571    0.0117    0.0007   -0.0014    0.1138   -0.0479   -0.0100
          12    0.0000    0.0112   -0.1503    0.4083    0.0000   -0.0472   -0.1120    0.1115
          13   -0.0405   -0.4633   -0.0356   -0.0000    0.1734    0.4647   -0.1949    0.0410
          14    0.0243    0.1575    0.0119   -0.0007   -0.0016   -0.1142    0.0481   -0.0101
          15   -0.0001    0.0114   -0.1503   -0.4083    0.0000    0.0473    0.1122    0.1115
          16   -0.0405   -0.2008   -0.4190   -0.0001   -0.1733   -0.4011   -0.3050    0.1973
          17    0.0122    0.1519    0.0145   -0.3539    0.0008    0.1130   -0.0466    0.0070
          18   -0.0211    0.0086   -0.1558   -0.2035   -0.0013   -0.0487   -0.1132    0.0610
          19   -0.0405   -0.2624    0.3835    0.0001   -0.1733   -0.0635    0.4999   -0.1563
          20    0.0122    0.1525    0.0082    0.3532    0.0008    0.1123   -0.0484   -0.0455
          21    0.0211    0.0146   -0.1554   -0.2047    0.0013   -0.0470   -0.1139    0.0716
          22   -0.0405    0.2009    0.4191    0.0002    0.1733   -0.4012   -0.3050   -0.1973
          23   -0.0121    0.1517    0.0142    0.3539    0.0007   -0.1128    0.0467    0.0071
          24    0.0211    0.0087   -0.1558    0.2035   -0.0013    0.0486    0.1131    0.0610
          25   -0.0405    0.2626   -0.3835   -0.0002    0.1733   -0.0636    0.4999    0.1563
          26   -0.0122    0.1522    0.0086   -0.3532    0.0007   -0.1122    0.0481   -0.0456
          27   -0.0210    0.0147   -0.1554    0.2047    0.0013    0.0470    0.1138    0.0716


   Root No.       9        10        11        12        13        14        15        16

                 2 E'      2 A2"     2 A1'     3 E'      3 E'      2 E"      2 E"      4 E'  

                1380.5    1387.2    1414.2    1593.4    1593.4    1595.2    1595.2    2708.9
  
           1    0.0004    0.0457    0.0000   -0.0000   -0.0000    0.0000   -0.0000    0.0000
           2    0.8526   -0.0000    0.0000   -0.0743   -0.0914   -0.0001   -0.0000    0.0128
           3    0.1695    0.0000   -0.0000   -0.0914    0.0743   -0.0000   -0.0000   -0.0201
           4   -0.0001   -0.2906   -0.2873   -0.0000   -0.0001    0.0001   -0.0000    0.0000
           5   -0.1798    0.0001    0.0001   -0.1018   -0.1251    0.1813   -0.0106    0.1031
           6   -0.0358   -0.0000   -0.0000   -0.1249    0.1017   -0.0105   -0.1813   -0.1622
           7   -0.0001   -0.2906    0.2873   -0.0000   -0.0001   -0.0001    0.0000    0.0000
           8   -0.1798    0.0002   -0.0001   -0.1015   -0.1250   -0.1815    0.0104    0.1033
           9   -0.0357    0.0000    0.0000   -0.1253    0.1016    0.0105    0.1812   -0.1618
          10    0.2042    0.3535    0.3527   -0.1223   -0.1510    0.1748   -0.0099    0.1025
          11    0.0510    0.1147    0.1214   -0.0481   -0.0609    0.0691   -0.0030   -0.2805
          12    0.0223   -0.0001   -0.0003    0.4019   -0.3255    0.0295    0.5245   -0.0294
          13   -0.2041    0.3534   -0.3526    0.1221    0.1508    0.1749   -0.0098   -0.1029
          14    0.0512   -0.1150    0.1217   -0.0481   -0.0609   -0.0693    0.0029   -0.2806
          15    0.0223    0.0004   -0.0003    0.4024   -0.3254   -0.0292   -0.5244   -0.0293
          16   -0.0666    0.3535    0.3526   -0.0693    0.1814   -0.0961   -0.1464   -0.1906
          17    0.1018   -0.0576   -0.0607    0.4327    0.1246   -0.3618    0.2787   -0.2577
          18    0.0393    0.0995    0.1054    0.2168    0.1553   -0.2518    0.0934    0.4518
          19   -0.1375    0.3535    0.3527    0.1917   -0.0302   -0.0790    0.1563    0.0879
          20    0.0913   -0.0577   -0.0612    0.0317    0.4483   -0.3898   -0.2359    0.1470
          21   -0.0131   -0.0995   -0.1051   -0.1070   -0.2459    0.2620    0.0653    0.1919
          22    0.0666    0.3535   -0.3527    0.0699   -0.1812   -0.0958   -0.1466    0.1903
          23    0.1018    0.0570   -0.0604    0.4326    0.1246    0.3623   -0.2779   -0.2576
          24    0.0393   -0.0997    0.1054    0.2165    0.1552    0.2520   -0.0930    0.4516
          25    0.1376    0.3535   -0.3527   -0.1918    0.0306   -0.0788    0.1563   -0.0875
          26    0.0911    0.0576   -0.0608    0.0313    0.4481    0.3902    0.2356    0.1469
          27   -0.0131    0.0993   -0.1051   -0.1067   -0.2458   -0.2623   -0.0653    0.1915


   Root No.      17        18        19        20        21

                 4 E'      3 E"      3 E"      3 A1'     3 A2" 

                2708.9    2711.8    2711.8    2784.6    2800.1
  
           1   -0.0000    0.0000   -0.0000   -0.0000    0.0477
           2   -0.0201    0.0000   -0.0000   -0.0000   -0.0000
           3   -0.0128   -0.0000    0.0000   -0.0000   -0.0000
           4   -0.0001   -0.0000   -0.0001    0.0871    0.0792
           5   -0.1620   -0.0132   -0.1914    0.0001    0.0001
           6   -0.1032    0.1914   -0.0132    0.0000    0.0000
           7   -0.0001    0.0000    0.0001   -0.0872    0.0792
           8   -0.1621    0.0133    0.1914   -0.0001   -0.0001
           9   -0.1032   -0.1916    0.0132   -0.0000   -0.0000
          10   -0.1604   -0.0132   -0.1872   -0.1104   -0.1062
          11    0.4385    0.0367    0.5205    0.3898    0.3911
          12   -0.0197    0.0382   -0.0035   -0.0008   -0.0001
          13    0.1608   -0.0133   -0.1876    0.1108   -0.1066
          14    0.4384   -0.0370   -0.5201    0.3896   -0.3910
          15   -0.0197   -0.0378    0.0037   -0.0009    0.0013
          16   -0.0087    0.1689    0.0823   -0.1107   -0.1065
          17   -0.0422    0.2479    0.0840   -0.1940   -0.1953
          18    0.0030   -0.3981   -0.2151    0.3379    0.3387
          19    0.1693   -0.1557    0.1052   -0.1107   -0.1065
          20    0.2177   -0.2349    0.1192   -0.1955   -0.1955
          21    0.4079   -0.3632    0.2684   -0.3371   -0.3385
          22    0.0086    0.1689    0.0821    0.1106   -0.1063
          23   -0.0422   -0.2486   -0.0841   -0.1942    0.1944
          24    0.0030    0.3983    0.2148    0.3380   -0.3392
          25   -0.1692   -0.1556    0.1051    0.1105   -0.1063
          26    0.2179    0.2355   -0.1191   -0.1957    0.1966
          27    0.4080    0.3632   -0.2685   -0.3371    0.3379


          DESCRIPTION OF VIBRATIONS


 VIBRATION          1    1A2"        ATOM PAIR     ENERGY CONTRIBUTION    RADIAL
 FREQUENCY         -1108.51         H 1 -- N 3         -50.8% (-96.6%)    100.0%
 TRANSITION DIPOLE   5.9146         H 1 -- N 2         -50.8% (-96.6%)    100.0%
 TRAVEL (Ang.)       0.2537         N 3 -- H 5          -0.3% ( -6.9%)     46.1%
 REDUCED MASS        0.9450         N 2 -- H 4          -0.3% ( -6.9%)     45.9%
 EFFECTIVE MASS      1.0675
 FORCE CONSTANT     -0.6842

 VIBRATION          3    1E'         ATOM PAIR     ENERGY CONTRIBUTION    RADIAL
 FREQUENCY           322.40         H 1 -- N 3         +20.5% (167.7%)      0.0%
 TRANSITION DIPOLE   0.6493         H 1 -- N 2         +20.5% (167.7%)      0.0%
 TRAVEL (Ang.)       0.0000         N 3 -- H 8         +14.0% (138.5%)      0.8%
 REDUCED MASS        0.1822         N 2 -- H 6         +14.0% (138.5%)      0.8%
 EFFECTIVE MASS      1.5450         N 2 -- H 7         +12.2% (129.5%)      0.7%
 FORCE CONSTANT      0.0112         N 3 -- H 9         +12.2% (129.5%)      0.8%

 VIBRATION          4    1A1"        ATOM PAIR     ENERGY CONTRIBUTION    RADIAL
 FREQUENCY           336.60         N 2 -- H 4         +16.7% (147.1%)      0.0%
 TRANSITION DIPOLE   0.0000         N 3 -- H 5         +16.7% (147.1%)      0.0%
 TRAVEL (Ang.)       0.0000         N 2 -- H 6         +16.7% (147.1%)      0.0%
 REDUCED MASS        0.1680         N 2 -- H 7         +16.7% (147.1%)      0.0%
 EFFECTIVE MASS      1.0079         N 3 -- H 8         +16.7% (147.1%)      0.0%
 FORCE CONSTANT      0.0112         N 3 -- H 9         +16.7% (147.1%)      0.0%

 VIBRATION          5    1A1'        ATOM PAIR     ENERGY CONTRIBUTION    RADIAL
 FREQUENCY           549.70         H 1 -- N 3         +16.1% ( 86.2%)    100.0%
 TRANSITION DIPOLE   0.0000         H 1 -- N 2         +16.1% ( 86.2%)    100.0%
 TRAVEL (Ang.)       0.1614         N 3 -- H 5         +11.3% ( 72.3%)     12.3%
 REDUCED MASS        4.7110         N 2 -- H 7         +11.3% ( 72.3%)     12.3%
 EFFECTIVE MASS     19.6698         N 2 -- H 6         +11.3% ( 72.3%)     12.3%
 FORCE CONSTANT      0.8387         N 3 -- H 8         +11.3% ( 72.3%)     12.2%
                            N 3 -- H 9         +11.3% ( 72.3%)     12.2%
                            N 2 -- H 4         +11.3% ( 72.3%)     12.1%

 VIBRATION          7    1E"         ATOM PAIR     ENERGY CONTRIBUTION    RADIAL
 FREQUENCY           644.90         N 2 -- H 7         +21.7% ( 81.5%)      9.2%
 TRANSITION DIPOLE   0.0000         N 3 -- H 9         +21.7% ( 81.5%)      9.3%
 TRAVEL (Ang.)       0.5679         N 2 -- H 6         +13.3% ( 63.9%)      5.6%
 REDUCED MASS        0.3242         N 3 -- H 8         +13.3% ( 63.9%)      5.7%
 EFFECTIVE MASS      4.0276         N 3 -- H 5         +10.4% ( 56.4%)      2.9%
 FORCE CONSTANT      0.0794         N 2 -- H 4         +10.4% ( 56.4%)      3.1%

 VIBRATION          9    2E'         ATOM PAIR     ENERGY CONTRIBUTION    RADIAL
 FREQUENCY          1380.47         H 1 -- N 2         +43.6% ( 80.3%)      0.0%
 TRANSITION DIPOLE   1.3778         H 1 -- N 3         +43.6% ( 80.3%)      0.0%
 TRAVEL (Ang.)       0.2822         N 2 -- H 6          +2.2% ( 18.0%)      2.5%
 REDUCED MASS        0.6134         N 3 -- H 8          +2.2% ( 18.0%)      2.5%
 EFFECTIVE MASS      1.5913
 FORCE CONSTANT      0.6887

 VIBRATION         10    2A2"        ATOM PAIR     ENERGY CONTRIBUTION    RADIAL
 FREQUENCY          1387.24         N 3 -- H 9         +15.8% ( 36.9%)      3.1%
 TRANSITION DIPOLE   1.9371         N 2 -- H 7         +15.8% ( 36.9%)      3.2%
 TRAVEL (Ang.)       0.3927         N 2 -- H 6         +15.8% ( 36.9%)      3.2%
 REDUCED MASS        0.3153         N 3 -- H 8         +15.8% ( 36.9%)      3.1%
 EFFECTIVE MASS      2.1932         N 3 -- H 5         +15.8% ( 36.9%)      3.1%
 FORCE CONSTANT      0.3575         N 2 -- H 4         +15.8% ( 36.9%)      3.0%

 VIBRATION         11    2A1'        ATOM PAIR     ENERGY CONTRIBUTION    RADIAL
 FREQUENCY          1414.23         N 3 -- H 5         +15.8% ( 36.0%)      2.8%
 TRANSITION DIPOLE   0.0000         N 2 -- H 7         +15.8% ( 36.0%)      2.8%
 TRAVEL (Ang.)       0.3934         N 2 -- H 6         +15.8% ( 36.0%)      2.8%
 REDUCED MASS        0.3080         N 3 -- H 8         +15.7% ( 36.0%)      2.7%
 EFFECTIVE MASS      2.3466         N 3 -- H 9         +15.7% ( 36.0%)      2.7%
 FORCE CONSTANT      0.3630         N 2 -- H 4         +15.7% ( 36.0%)      2.7%

 VIBRATION         13    3E'         ATOM PAIR     ENERGY CONTRIBUTION    RADIAL
 FREQUENCY          1593.44         N 2 -- H 7         +27.8% ( 43.1%)      0.1%
 TRANSITION DIPOLE   0.7896         N 3 -- H 9         +27.8% ( 43.1%)      0.1%
 TRAVEL (Ang.)       0.4559         N 2 -- H 4         +13.5% ( 30.0%)      6.0%
 REDUCED MASS        0.2036         N 3 -- H 5         +13.4% ( 30.0%)      6.2%
 EFFECTIVE MASS      1.4158
 FORCE CONSTANT      0.3046

 VIBRATION         15    2E"         ATOM PAIR     ENERGY CONTRIBUTION    RADIAL
 FREQUENCY          1595.24         N 2 -- H 4         +28.9% ( 44.7%)      0.0%
 TRANSITION DIPOLE   0.0004         N 3 -- H 5         +28.9% ( 44.7%)      0.0%
 TRAVEL (Ang.)       0.4376         N 2 -- H 6         +11.1% ( 27.7%)     10.8%
 REDUCED MASS        0.2207         N 3 -- H 8         +11.0% ( 27.6%)     10.8%
 EFFECTIVE MASS      1.5113
 FORCE CONSTANT      0.3309

 VIBRATION         17    4E'         ATOM PAIR     ENERGY CONTRIBUTION    RADIAL
 FREQUENCY          2708.93         N 3 -- H 9         +25.9% ( 52.2%)     98.0%
 TRANSITION DIPOLE   1.6830         N 2 -- H 7         +25.9% ( 52.2%)     97.9%
 TRAVEL (Ang.)       0.3137         N 3 -- H 5         +23.3% ( 49.5%)     97.3%
 REDUCED MASS        0.2529         N 2 -- H 4         +23.3% ( 49.5%)     97.4%
 EFFECTIVE MASS      1.4740
 FORCE CONSTANT      1.0934

 VIBRATION         19    3E"         ATOM PAIR     ENERGY CONTRIBUTION    RADIAL
 FREQUENCY          2711.78         N 2 -- H 4         +32.6% ( 58.5%)     99.1%
 TRANSITION DIPOLE   0.0004         N 3 -- H 5         +32.6% ( 58.5%)     99.0%
 TRAVEL (Ang.)       0.3136         N 3 -- H 9         +10.5% ( 33.2%)     90.6%
 REDUCED MASS        0.2528         N 2 -- H 7         +10.5% ( 33.2%)     90.3%
 EFFECTIVE MASS      1.4651
 FORCE CONSTANT      1.0955

 VIBRATION         20    3A1'        ATOM PAIR     ENERGY CONTRIBUTION    RADIAL
 FREQUENCY          2784.61         N 3 -- H 9         +16.6% ( 39.3%)     98.7%
 TRANSITION DIPOLE   0.0000         N 3 -- H 8         +16.6% ( 39.3%)     98.7%
 TRAVEL (Ang.)       0.3836         N 2 -- H 4         +16.6% ( 39.3%)     98.6%
 REDUCED MASS        0.1645         N 3 -- H 5         +16.6% ( 39.3%)     98.7%
 EFFECTIVE MASS      1.1017         N 2 -- H 7         +16.6% ( 39.3%)     98.7%
 FORCE CONSTANT      0.7517         N 2 -- H 6         +16.6% ( 39.3%)     98.7%

 VIBRATION         21    3A2"        ATOM PAIR     ENERGY CONTRIBUTION    RADIAL
 FREQUENCY          2800.14         N 2 -- H 6         +16.7% ( 39.0%)     99.2%
 TRANSITION DIPOLE   0.6537         N 2 -- H 4         +16.7% ( 39.0%)     99.2%
 TRAVEL (Ang.)       0.3830         N 2 -- H 7         +16.7% ( 39.0%)     99.2%
 REDUCED MASS        0.1641         N 3 -- H 5         +16.7% ( 39.0%)     99.2%
 EFFECTIVE MASS      1.0832         N 3 -- H 8         +16.7% ( 39.0%)     99.2%
 FORCE CONSTANT      0.7583         N 3 -- H 9         +16.7% ( 39.0%)     99.2%

           FORCE CONSTANT IN INTERNAL COORDINATES (Millidynes/A)

    ATOM   CHEMICAL  BOND LENGTH      BOND ANGLE     TWIST ANGLE
   NUMBER   SYMBOL  FORCE CONSTANT  FORCE CONSTANT  FORCE CONSTANT

      1       H        0.000000        0.000000        0.000000
      2       N        1.343221        0.000000        0.000000
      3       N        1.343220        4.946240        0.000000
      4       H        2.795882        2.030769        0.788241
      5       H        2.781171        2.044079        0.786095
      6       H        2.778615        2.046802        0.785137
      7       H        2.777701        2.048572        0.785331
      8       H        2.787028        2.039996        0.786776
      9       H        2.786697        2.038274        0.785899
 *******************************************************************************
 ** Site#: 37037        For non-commercial use only           Version 21.158W **
 *******************************************************************************
 ** Cite this program as: MOPAC2016, Version: 21.158W, James J. P. Stewart,   **
 ** Stewart Computational Chemistry, web: HTTP://OpenMOPAC.net. Days left: 361**
 *******************************************************************************
 **                                                                           **
 **                                MOPAC2016                                  **
 **                                                                           **
 *******************************************************************************

                              PM7 CALCULATION RESULTS

 *******************************************************************************
 *  CALCULATION DONE:                                Fri Jun 11 08:11:46 2021  *
 *
 *
 *
 *                 CHARGE ON SYSTEM = +1
 *
 *
 *
 *  EPS=78.4   - USE ANDREAS KLAMT'S COSMO IMPLICIT SOLVATION MODEL
 *  IRC=N      - INTRINSIC REACTION COORDINATE  1 DEFINED
 *  OLDGEO     - PREVIOUS GEOMETRY TO BE USED
 *  RESTART    - CALCULATION RESTARTED
 *  T=         - A TIME OF 172800.0 SECONDS REQUESTED
 *  DUMP=N     - RESTART FILE WRITTEN EVERY 7200.0 SECONDS REQUESTED
 *  HTML       - WRITE HTML SCRIPT TO GENERATE ANIMATION USING JSMOL
 *             - TO DISPLAY IN PDB FORMAT, ADD "PDBOUT"
 *  X-PRIOR    - GEOMETRY CHANGES TAKE PRIORITY IN DRC
 *******************************************************************************
oldgeo IRC=1* restart HTML eps=78.4 x-priority=0.05
 [NH4](+) + NH3 <=> NH3 + [NH4](+)

  ATOM    CHEMICAL      BOND LENGTH      BOND ANGLE     TWIST ANGLE 
 NUMBER    SYMBOL       (ANGSTROMS)      (DEGREES)       (DEGREES) 
   (I)                     NA:I           NB:NA:I       NC:NB:NA:I       NA    NB    NC 
     1       H          0.00000000       0.0000000       0.0000000        0     0     0
     2       N          1.31021237  *   -0.0000000  *   -0.0000000  *     1     0     0
     3       N          1.31021237     180.0428239  *    0.0000000  *     1     2     0
     4       H          1.01165009  *  110.1419960  * -179.9956712  *     2     1     3
     5       H          1.01121816  *  110.2874583  * -179.7976115  *     3     1     2
     6       H          1.01124313  *  110.3848691  *  -60.1482622  *     2     1     3
     7       H          1.01145205  *  110.3986040  *   60.0184976  *     2     1     3
     8       H          1.01169294  *  110.2938803  *   60.2181990  *     3     1     2
     9       H          1.01117896  *  110.3004762  *  -59.7954241  *     3     1     2
 


          CARTESIAN COORDINATES 

    NO.       ATOM           X           Y           Z

     1         H          0.0000      0.0000      0.0000
     2         N          1.3102      0.0000      0.0000
     3         N         -1.3102     -0.0010      0.0000
     4         H          1.6586      0.9498      0.0001
     5         H         -1.6615      0.9472     -0.0034
     6         H          1.6625     -0.4718      0.8221
     7         H          1.6628     -0.4737     -0.8212
     8         H         -1.6608     -0.4726      0.8236
     9         H         -1.6607     -0.4784     -0.8196

 General Reference for PM7:
 "Optimization of Parameters for Semiempirical Methods VI: More Modifications to the 
 NDDO Approximations and Re-optimization of Parameters", J. J. P. Stewart, J. Mol. Mod., 1:32, 19 (2013)
 https://link.springer.com/article/10.1007/s00894-012-1667-x

           Empirical Formula: H7 N2  =     9 atoms



      MOLECULAR POINT GROUP   :   D3h 


      RHF CALCULATION, NO. OF DOUBLY OCCUPIED LEVELS = 8


          MOLECULAR WEIGHT =   35.07


          ESTIMATED TIME TO COMPLETE CALCULATION =        0.00 SECONDS

          TIME USED UP TO RESTART =                  0.14

    FOR POINT-GROUP D3h  THERE ARE  12 UNIQUE SYMMETRY FUNCTIONS.

           INITIAL VELOCITY IN DRC (Angstroms/Femtosecond)
         0.74491        -0.00033        -0.00001
        -0.02018         0.00000         0.00000
        -0.02018         0.00002        -0.00000
        -0.03070        -0.01841         0.00001
        -0.03068         0.01844        -0.00006
        -0.03068         0.00921        -0.01595
        -0.03068         0.00922         0.01595
        -0.03069        -0.00914         0.01598
        -0.03069        -0.00924        -0.01592

 GEOMETRY PRIORITY, STEP = 0.0500 ANGSTROMS



     POINT   POTENTIAL  +  ENERGY LOST   =   TOTAL      ERROR    REF%   MOVEMENT
       1      61.65435      0.00000         61.65435   0.00000     1   %  0.0000
      15      61.62003      0.04280         61.66283   0.03127     2   %  0.0494
      24      61.37852      0.25984         61.63837   0.00681     3   %  0.0996
      28      61.05794      0.57180         61.62974  -0.00182     4   %  0.1498
      31      60.70347      0.92568         61.62915  -0.00241     5   %  0.2003
      34      60.38748      1.18871         61.57619  -0.05536     6   %  0.2396
      38      60.13906      1.43997         61.57903  -0.05253     7   %  0.2884
      41      59.98292      1.59826         61.58118  -0.05038     8   %  0.3276
      43      59.82634      1.77257         61.59891  -0.03264     9   %  0.3757
      48      59.67345      1.91292         61.58636  -0.04519    10   %  0.4181
      55      59.54364      2.07277         61.61641  -0.01514    11   %  0.4707
      62      59.49559      2.21692         61.71250   0.08095    12   %  0.5198
      66      59.35409      2.35265         61.70674   0.07519    13   %  0.5690
      68      59.23418      2.48181         61.71599   0.08443    14   %  0.6188
      71      59.11508      2.60006         61.71514   0.08358    15   %  0.6673
      74      58.99442      2.71437         61.70879   0.07724    16   %  0.7175
      77      58.88076      2.82086         61.70162   0.07007    17   %  0.7672
      83      58.72681      2.92098         61.64779   0.01624    18   %  0.8170
      87      58.63136      3.01504         61.64640   0.01484    19   %  0.8668
      92      58.48574      3.10284         61.58858  -0.04297    20   %  0.9166
      96      58.39543      3.18536         61.58079  -0.05077    21   %  0.9666
      99      58.31042      3.26195         61.57237  -0.05919    22   %  1.0166
     103      58.23844      3.33248         61.57092  -0.06064    23   %  1.0660
     109      58.16575      3.40237         61.56812  -0.06344    24   %  1.1157
     117      58.10777      3.46267         61.57044  -0.06111    25   %  1.1657
     121      58.04832      3.51680         61.56512  -0.06644    26   %  1.2153
     123      58.01749      3.54518         61.56266  -0.06889    27   %  1.2412
     135      57.94319      3.68505         61.62824  -0.00331    28   %  1.3144
     140      57.90163      3.74939         61.65102   0.01946    29   %  1.3627
     154      57.88197      3.78636         61.66833   0.03677    30   %  1.4140
     157      57.84469      3.81466         61.65935   0.02780    31   %  1.4597
     172      57.83288      3.89452         61.72740   0.09585    32   %  1.5103
     174      57.81763      3.90658         61.72421   0.09265    33   %  1.5334
     195      57.73091      4.23891         61.96982   0.33826    34   %  1.6038
     220      57.72238      4.29796         62.02035   0.38879    35   %  1.6423


           POTENTIAL ENERGY HAS STOPPED DROPPING

           INITIAL VELOCITY IN DRC (Angstroms/Femtosecond)
        -0.74491         0.00033         0.00001
         0.02018        -0.00000        -0.00000
         0.02018        -0.00002         0.00000
         0.03070         0.01841        -0.00001
         0.03068        -0.01844         0.00006
         0.03068        -0.00921         0.01595
         0.03068        -0.00922        -0.01595
         0.03069         0.00914        -0.01598
         0.03069         0.00924         0.01592

 GEOMETRY PRIORITY, STEP = 0.0500 ANGSTROMS



     POINT   POTENTIAL  +  ENERGY LOST   =   TOTAL      ERROR    REF%   MOVEMENT
       1      61.65435      0.00000         61.65435   0.00000     1   %  0.0000
      24      61.59150      0.03323         61.62472   0.00236     2   %  0.0492
      30      61.37200      0.23529         61.60729  -0.01507     3   %  0.1000
      34      61.10588      0.49219         61.59808  -0.02428     4   %  0.1440
      46      60.75468      0.85867         61.61335  -0.00901     5   %  0.1983
      50      60.46475      1.14844         61.61318  -0.00918     6   %  0.2438
      53      60.24690      1.36864         61.61553  -0.00683     7   %  0.2889
      55      60.07330      1.54274         61.61604  -0.00632     8   %  0.3329
      56      59.91914      1.69181         61.61094  -0.01142     9   %  0.3745
      59      59.74021      1.85608         61.59629  -0.02607    10   %  0.4239
      69      59.69389      1.99539         61.68928   0.06692    11   %  0.4699
      77      59.56355      2.14078         61.70433   0.08197    12   %  0.5210
      81      59.43168      2.27325         61.70493   0.08257    13   %  0.5699
      84      59.30588      2.40068         61.70656   0.08420    14   %  0.6194
      86      59.18094      2.52063         61.70157   0.07921    15   %  0.6691
      88      59.06313      2.63685         61.69997   0.07761    16   %  0.7203
      90      58.95820      2.73785         61.69605   0.07369    17   %  0.7677
      91      58.85079      2.84198         61.69277   0.07041    18   %  0.8182
      97      58.75968      2.92762         61.68730   0.06494    19   %  0.8626
     103      58.65068      3.02151         61.67219   0.04983    20   %  0.9165
     107      58.56087      3.10177         61.66264   0.04028    21   %  0.9663
     113      58.48156      3.17647         61.65803   0.03566    22   %  1.0160
     117      58.40676      3.24567         61.65243   0.03007    23   %  1.0658
     122      58.32984      3.30975         61.63959   0.01723    24   %  1.1159
     127      58.26049      3.36820         61.62870   0.00634    25   %  1.1656
     133      58.21124      3.42201         61.63325   0.01089    26   %  1.2155
     139      58.16379      3.46336         61.62716   0.00480    27   %  1.2580
     150      58.17249      3.51367         61.68616   0.06379    28   %  1.3151
     159      58.12771      3.55201         61.67973   0.05736    29   %  1.3651
     167      58.08684      3.58573         61.67257   0.05021    30   %  1.4150
     176      58.06080      3.61497         61.67578   0.05341    31   %  1.4647
     191      58.01254      3.66351         61.67605   0.05369    32   %  1.5144
     198      58.00668      3.68853         61.69521   0.07285    33   %  1.5574


 IRC CALCULATION COMPLETE 

 **********************
 *                    *
 * JOB ENDED NORMALLY *
 *                    *
 **********************



 TOTAL JOB TIME:            16.40 SECONDS

 == MOPAC DONE ==
