 INFO
nunit      1    1    1
unit   cell
celltype   convcell
shape   parapipedal
 END_INFO
 DIM-GROUP
           3           1
 PRIMVEC
   11.5405742520    0.0000000000    0.0000000000
   -0.0000000000   11.5405742520    0.0000000000
    0.0000000000    0.0000000000   11.5405742520
 CONVVEC
   11.5405742520    0.0000000000    0.0000000000
   -0.0000000000   11.5405742520    0.0000000000
    0.0000000000    0.0000000000   11.5405742520
 PRIMCOORD
          64           1
 32      0.0000000000     0.0000000000     0.0000000000     0.0000000000     0.0000000000     0.0000000000
 32      5.7702884070     5.7702884070     0.0000000000     0.0000000000     0.0000000000     0.0000000000
 32      5.7702884070     0.0000000000     5.7702884070     0.0000000000     0.0000000000     0.0000000000
 32      0.0000000000     5.7702884070     5.7702884070     0.0000000000     0.0000000000     0.0000000000
 32      8.6554325170     8.6554325170     5.7703567150     0.0000000500     0.0000000500    -0.0000292200
 32      8.6554326440     2.8851441690     0.0000686780     0.0000000700    -0.0000000700    -0.0000295800
 32      2.8851441690     8.6554326440     0.0000686780    -0.0000000700     0.0000000700    -0.0000295800
 32      2.8851442960     2.8851442960     5.7703567150    -0.0000000500    -0.0000000500    -0.0000292200
 32     11.5405081350     8.6554326440     8.6554326440     0.0000295800     0.0000000700     0.0000000700
 32     11.5405081350     2.8851441690     2.8851441690     0.0000295800    -0.0000000700    -0.0000000700
 32      5.7702200980     8.6554325170     2.8851442960     0.0000292200     0.0000000500    -0.0000000500
 32      5.7702200980     2.8851442960     8.6554325170     0.0000292200    -0.0000000500     0.0000000500
 32      5.7703451750     8.6554325170     8.6554325170    -0.0000292200     0.0000000500     0.0000000500
 32      5.7703451750     2.8851442960     2.8851442960    -0.0000292200    -0.0000000500    -0.0000000500
 32      0.0000571370     8.6554326440     2.8851441690    -0.0000295800     0.0000000700    -0.0000000700
 32      0.0000571370     2.8851441690     8.6554326440    -0.0000295800    -0.0000000700     0.0000000700
 32      8.6554326440     8.6554326440    11.5405196760     0.0000000700     0.0000000700     0.0000295800
 32      8.6554325170     2.8851442960     5.7702316390     0.0000000500    -0.0000000500     0.0000292200
 32      2.8851442960     8.6554325170     5.7702316390    -0.0000000500     0.0000000500     0.0000292200
 32      2.8851441690     2.8851441690    11.5405196760    -0.0000000700    -0.0000000700     0.0000295800
 32      8.6554325170     5.7703451750     8.6554325170     0.0000000500    -0.0000292200     0.0000000500
 32      8.6554326440     0.0000571370     2.8851441690     0.0000000700    -0.0000295800    -0.0000000700
 32      2.8851442960     5.7703451750     2.8851442960    -0.0000000500    -0.0000292200    -0.0000000500
 32      2.8851441690     0.0000571370     8.6554326440    -0.0000000700    -0.0000295800     0.0000000700
 32      8.6554326440    11.5405196760     8.6554326440     0.0000000700     0.0000295800     0.0000000700
 32      8.6554325170     5.7702316390     2.8851442960     0.0000000500     0.0000292200    -0.0000000500
 32      2.8851441690    11.5405196760     2.8851441690    -0.0000000700     0.0000295800    -0.0000000700
 32      2.8851442960     5.7702316390     8.6554325170    -0.0000000500     0.0000292200     0.0000000500
 32      5.7702884070     5.7702884070     5.7702884070     0.0000000000     0.0000000000     0.0000000000
 32      5.7702884070     0.0000000000     0.0000000000     0.0000000000     0.0000000000     0.0000000000
 32      0.0000000000     5.7702884070     0.0000000000     0.0000000000     0.0000000000     0.0000000000
 32      0.0000000000     0.0000000000     5.7702884070     0.0000000000     0.0000000000     0.0000000000
 32      1.4425428460     1.4425428460     1.4425428460     0.0000194600     0.0000194600     0.0000194600
 32      1.4425435160     7.2128314380     7.2128314380     0.0000191500     0.0000194700     0.0000194700
 32      7.2128314380     1.4425435160     7.2128314380     0.0000194700     0.0000191500     0.0000194700
 32      7.2128314380     7.2128314380     1.4425435160     0.0000194700     0.0000194700     0.0000191500
 32      1.4425435160     4.3277453760     4.3277569160     0.0000191500    -0.0000194700    -0.0000194700
 32      1.4425428460    10.0980339670    10.0980455070     0.0000194600    -0.0000194600    -0.0000194600
 32      7.2128314380     4.3277453760    10.0980448380     0.0000194700    -0.0000194700    -0.0000191500
 32      7.2128314380    10.0980332980     4.3277569160     0.0000194700    -0.0000191500    -0.0000194700
 32      4.3277684570     4.3277684570     1.4425319750    -0.0000194700    -0.0000194700     0.0000191500
 32      4.3277684570    10.0980563790     7.2128198970    -0.0000194700    -0.0000191500     0.0000194700
 32     10.0980563790     4.3277684570     7.2128198970    -0.0000191500    -0.0000194700     0.0000194700
 32     10.0980570480    10.0980570480     1.4425313060    -0.0000194600    -0.0000194600     0.0000194600
 32      4.3277453760     1.4425435160     4.3277569160    -0.0000194700     0.0000191500    -0.0000194700
 32      4.3277453760     7.2128314380    10.0980448380    -0.0000194700     0.0000194700    -0.0000191500
 32     10.0980339670     1.4425428460    10.0980455070    -0.0000194600     0.0000194600    -0.0000194600
 32     10.0980332980     7.2128314380     4.3277569160    -0.0000191500     0.0000194700    -0.0000194700
 32      4.3277436560     4.3277436560     7.2128331570    -0.0000146700    -0.0000146700     0.0000146700
 32      4.3277438640    10.0980323510     1.4425444620    -0.0000147600    -0.0000147000     0.0000147000
 32     10.0980323510     4.3277438640     1.4425444620    -0.0000147000    -0.0000147600     0.0000147000
 32     10.0980323510    10.0980323510     7.2128329490    -0.0000147000    -0.0000147000     0.0000147600
 32      7.2128331570     4.3277436560     4.3277551970     0.0000146700    -0.0000146700    -0.0000146700
 32      7.2128329490    10.0980323510    10.0980438920     0.0000147600    -0.0000147000    -0.0000147000
 32      1.4425444620     4.3277438640    10.0980438920     0.0000147000    -0.0000147600    -0.0000147000
 32      1.4425444620    10.0980323510     4.3277554040     0.0000147000    -0.0000147000    -0.0000147600
 32      7.2128331570     7.2128331570     7.2128331570     0.0000146700     0.0000146700     0.0000146700
 32      7.2128329490     1.4425444620     1.4425444620     0.0000147600     0.0000147000     0.0000147000
 32      1.4425444620     7.2128329490     1.4425444620     0.0000147000     0.0000147600     0.0000147000
 32      1.4425444620     1.4425444620     7.2128329490     0.0000147000     0.0000147000     0.0000147600
 32      4.3277436560     7.2128331570     4.3277551970    -0.0000146700     0.0000146700    -0.0000146700
 32      4.3277438640     1.4425444620    10.0980438920    -0.0000147600     0.0000147000    -0.0000147000
 32     10.0980323510     7.2128329490    10.0980438920    -0.0000147000     0.0000147600    -0.0000147000
 32     10.0980323510     1.4425444620     4.3277554040    -0.0000147000     0.0000147000    -0.0000147600
 CONVCOORD
          64           1
 32      0.0000000000     0.0000000000     0.0000000000
 32      5.7702884070     5.7702884070     0.0000000000
 32      5.7702884070     0.0000000000     5.7702884070
 32      0.0000000000     5.7702884070     5.7702884070
 32      8.6554325170     8.6554325170     5.7703567150
 32      8.6554326440     2.8851441690     0.0000686780
 32      2.8851441690     8.6554326440     0.0000686780
 32      2.8851442960     2.8851442960     5.7703567150
 32     11.5405081350     8.6554326440     8.6554326440
 32     11.5405081350     2.8851441690     2.8851441690
 32      5.7702200980     8.6554325170     2.8851442960
 32      5.7702200980     2.8851442960     8.6554325170
 32      5.7703451750     8.6554325170     8.6554325170
 32      5.7703451750     2.8851442960     2.8851442960
 32      0.0000571370     8.6554326440     2.8851441690
 32      0.0000571370     2.8851441690     8.6554326440
 32      8.6554326440     8.6554326440    11.5405196760
 32      8.6554325170     2.8851442960     5.7702316390
 32      2.8851442960     8.6554325170     5.7702316390
 32      2.8851441690     2.8851441690    11.5405196760
 32      8.6554325170     5.7703451750     8.6554325170
 32      8.6554326440     0.0000571370     2.8851441690
 32      2.8851442960     5.7703451750     2.8851442960
 32      2.8851441690     0.0000571370     8.6554326440
 32      8.6554326440    11.5405196760     8.6554326440
 32      8.6554325170     5.7702316390     2.8851442960
 32      2.8851441690    11.5405196760     2.8851441690
 32      2.8851442960     5.7702316390     8.6554325170
 32      5.7702884070     5.7702884070     5.7702884070
 32      5.7702884070     0.0000000000     0.0000000000
 32      0.0000000000     5.7702884070     0.0000000000
 32      0.0000000000     0.0000000000     5.7702884070
 32      1.4425428460     1.4425428460     1.4425428460
 32      1.4425435160     7.2128314380     7.2128314380
 32      7.2128314380     1.4425435160     7.2128314380
 32      7.2128314380     7.2128314380     1.4425435160
 32      1.4425435160     4.3277453760     4.3277569160
 32      1.4425428460    10.0980339670    10.0980455070
 32      7.2128314380     4.3277453760    10.0980448380
 32      7.2128314380    10.0980332980     4.3277569160
 32      4.3277684570     4.3277684570     1.4425319750
 32      4.3277684570    10.0980563790     7.2128198970
 32     10.0980563790     4.3277684570     7.2128198970
 32     10.0980570480    10.0980570480     1.4425313060
 32      4.3277453760     1.4425435160     4.3277569160
 32      4.3277453760     7.2128314380    10.0980448380
 32     10.0980339670     1.4425428460    10.0980455070
 32     10.0980332980     7.2128314380     4.3277569160
 32      4.3277436560     4.3277436560     7.2128331570
 32      4.3277438640    10.0980323510     1.4425444620
 32     10.0980323510     4.3277438640     1.4425444620
 32     10.0980323510    10.0980323510     7.2128329490
 32      7.2128331570     4.3277436560     4.3277551970
 32      7.2128329490    10.0980323510    10.0980438920
 32      1.4425444620     4.3277438640    10.0980438920
 32      1.4425444620    10.0980323510     4.3277554040
 32      7.2128331570     7.2128331570     7.2128331570
 32      7.2128329490     1.4425444620     1.4425444620
 32      1.4425444620     7.2128329490     1.4425444620
 32      1.4425444620     1.4425444620     7.2128329490
 32      4.3277436560     7.2128331570     4.3277551970
 32      4.3277438640     1.4425444620    10.0980438920
 32     10.0980323510     7.2128329490    10.0980438920
 32     10.0980323510     1.4425444620     4.3277554040
 RECIP-PRIMVEC
    0.0866508007    0.0000000000   -0.0000000000

    0.0000000000    0.0866508007    0.0000000000

    0.0000000000   -0.0000000000    0.0866508007

 RECIP-CONVVEC
    0.0866508007    0.0000000000   -0.0000000000

    0.0000000000    0.0866508007    0.0000000000

    0.0000000000   -0.0000000000    0.0866508007

 WIGNER-SEITZ-PRIMCELL
           4
 -0.5770287E+01 -0.5770287E+01  0.5770287E+01  -0.1000000E+01  0.0000000E+00  0.0000000E+00
 -0.5770287E+01  0.5770287E+01  0.5770287E+01  -0.1000000E+01  0.0000000E+00  0.0000000E+00
 -0.5770287E+01  0.5770287E+01 -0.5770287E+01  -0.1000000E+01  0.0000000E+00  0.0000000E+00
 -0.5770287E+01 -0.5770287E+01 -0.5770287E+01  -0.1000000E+01  0.0000000E+00  0.0000000E+00
           4
 -0.5770287E+01 -0.5770287E+01 -0.5770287E+01  -0.0000000E+00 -0.1000000E+01 -0.0000000E+00
  0.5770287E+01 -0.5770287E+01 -0.5770287E+01  -0.0000000E+00 -0.1000000E+01 -0.0000000E+00
  0.5770287E+01 -0.5770287E+01  0.5770287E+01  -0.0000000E+00 -0.1000000E+01 -0.0000000E+00
 -0.5770287E+01 -0.5770287E+01  0.5770287E+01  -0.0000000E+00 -0.1000000E+01 -0.0000000E+00
           4
 -0.5770287E+01  0.5770287E+01 -0.5770287E+01   0.0000000E+00  0.0000000E+00 -0.1000000E+01
  0.5770287E+01  0.5770287E+01 -0.5770287E+01   0.0000000E+00  0.0000000E+00 -0.1000000E+01
  0.5770287E+01 -0.5770287E+01 -0.5770287E+01   0.0000000E+00  0.0000000E+00 -0.1000000E+01
 -0.5770287E+01 -0.5770287E+01 -0.5770287E+01   0.0000000E+00  0.0000000E+00 -0.1000000E+01
           4
 -0.5770287E+01 -0.5770287E+01  0.5770287E+01  -0.0000000E+00 -0.0000000E+00  0.1000000E+01
  0.5770287E+01 -0.5770287E+01  0.5770287E+01  -0.0000000E+00 -0.0000000E+00  0.1000000E+01
  0.5770287E+01  0.5770287E+01  0.5770287E+01  -0.0000000E+00 -0.0000000E+00  0.1000000E+01
 -0.5770287E+01  0.5770287E+01  0.5770287E+01  -0.0000000E+00 -0.0000000E+00  0.1000000E+01
           4
 -0.5770287E+01  0.5770287E+01  0.5770287E+01   0.0000000E+00  0.1000000E+01  0.0000000E+00
  0.5770287E+01  0.5770287E+01  0.5770287E+01   0.0000000E+00  0.1000000E+01  0.0000000E+00
  0.5770287E+01  0.5770287E+01 -0.5770287E+01   0.0000000E+00  0.1000000E+01  0.0000000E+00
 -0.5770287E+01  0.5770287E+01 -0.5770287E+01   0.0000000E+00  0.1000000E+01  0.0000000E+00
           4
  0.5770287E+01 -0.5770287E+01 -0.5770287E+01   0.1000000E+01 -0.0000000E+00 -0.0000000E+00
  0.5770287E+01  0.5770287E+01 -0.5770287E+01   0.1000000E+01 -0.0000000E+00 -0.0000000E+00
  0.5770287E+01  0.5770287E+01  0.5770287E+01   0.1000000E+01 -0.0000000E+00 -0.0000000E+00
  0.5770287E+01 -0.5770287E+01  0.5770287E+01   0.1000000E+01 -0.0000000E+00 -0.0000000E+00
 WIGNER-SEITZ-PRIMCELL_END
 WIGNER-SEITZ-CONVCELL
           4
 -0.5770287E+01 -0.5770287E+01  0.5770287E+01  -0.1000000E+01  0.0000000E+00  0.0000000E+00
 -0.5770287E+01  0.5770287E+01  0.5770287E+01  -0.1000000E+01  0.0000000E+00  0.0000000E+00
 -0.5770287E+01  0.5770287E+01 -0.5770287E+01  -0.1000000E+01  0.0000000E+00  0.0000000E+00
 -0.5770287E+01 -0.5770287E+01 -0.5770287E+01  -0.1000000E+01  0.0000000E+00  0.0000000E+00
           4
 -0.5770287E+01 -0.5770287E+01 -0.5770287E+01  -0.0000000E+00 -0.1000000E+01 -0.0000000E+00
  0.5770287E+01 -0.5770287E+01 -0.5770287E+01  -0.0000000E+00 -0.1000000E+01 -0.0000000E+00
  0.5770287E+01 -0.5770287E+01  0.5770287E+01  -0.0000000E+00 -0.1000000E+01 -0.0000000E+00
 -0.5770287E+01 -0.5770287E+01  0.5770287E+01  -0.0000000E+00 -0.1000000E+01 -0.0000000E+00
           4
 -0.5770287E+01  0.5770287E+01 -0.5770287E+01   0.0000000E+00  0.0000000E+00 -0.1000000E+01
  0.5770287E+01  0.5770287E+01 -0.5770287E+01   0.0000000E+00  0.0000000E+00 -0.1000000E+01
  0.5770287E+01 -0.5770287E+01 -0.5770287E+01   0.0000000E+00  0.0000000E+00 -0.1000000E+01
 -0.5770287E+01 -0.5770287E+01 -0.5770287E+01   0.0000000E+00  0.0000000E+00 -0.1000000E+01
           4
 -0.5770287E+01 -0.5770287E+01  0.5770287E+01  -0.0000000E+00 -0.0000000E+00  0.1000000E+01
  0.5770287E+01 -0.5770287E+01  0.5770287E+01  -0.0000000E+00 -0.0000000E+00  0.1000000E+01
  0.5770287E+01  0.5770287E+01  0.5770287E+01  -0.0000000E+00 -0.0000000E+00  0.1000000E+01
 -0.5770287E+01  0.5770287E+01  0.5770287E+01  -0.0000000E+00 -0.0000000E+00  0.1000000E+01
           4
 -0.5770287E+01  0.5770287E+01  0.5770287E+01   0.0000000E+00  0.1000000E+01  0.0000000E+00
  0.5770287E+01  0.5770287E+01  0.5770287E+01   0.0000000E+00  0.1000000E+01  0.0000000E+00
  0.5770287E+01  0.5770287E+01 -0.5770287E+01   0.0000000E+00  0.1000000E+01  0.0000000E+00
 -0.5770287E+01  0.5770287E+01 -0.5770287E+01   0.0000000E+00  0.1000000E+01  0.0000000E+00
           4
  0.5770287E+01 -0.5770287E+01 -0.5770287E+01   0.1000000E+01 -0.0000000E+00 -0.0000000E+00
  0.5770287E+01  0.5770287E+01 -0.5770287E+01   0.1000000E+01 -0.0000000E+00 -0.0000000E+00
  0.5770287E+01  0.5770287E+01  0.5770287E+01   0.1000000E+01 -0.0000000E+00 -0.0000000E+00
  0.5770287E+01 -0.5770287E+01  0.5770287E+01   0.1000000E+01 -0.0000000E+00 -0.0000000E+00
 WIGNER-SEITZ-CONVCELL_END
 BRILLOUIN-ZONE-PRIMCELL
           4
 -0.4332540E-01 -0.4332540E-01  0.4332540E-01  -0.1000000E+01  0.0000000E+00  0.0000000E+00
 -0.4332540E-01  0.4332540E-01  0.4332540E-01  -0.1000000E+01  0.0000000E+00  0.0000000E+00
 -0.4332540E-01  0.4332540E-01 -0.4332540E-01  -0.1000000E+01  0.0000000E+00  0.0000000E+00
 -0.4332540E-01 -0.4332540E-01 -0.4332540E-01  -0.1000000E+01  0.0000000E+00  0.0000000E+00
           4
 -0.4332540E-01 -0.4332540E-01 -0.4332540E-01  -0.0000000E+00 -0.1000000E+01 -0.0000000E+00
  0.4332540E-01 -0.4332540E-01 -0.4332540E-01  -0.0000000E+00 -0.1000000E+01 -0.0000000E+00
  0.4332540E-01 -0.4332540E-01  0.4332540E-01  -0.0000000E+00 -0.1000000E+01 -0.0000000E+00
 -0.4332540E-01 -0.4332540E-01  0.4332540E-01  -0.0000000E+00 -0.1000000E+01 -0.0000000E+00
           4
 -0.4332540E-01  0.4332540E-01 -0.4332540E-01   0.0000000E+00  0.0000000E+00 -0.1000000E+01
  0.4332540E-01  0.4332540E-01 -0.4332540E-01   0.0000000E+00  0.0000000E+00 -0.1000000E+01
  0.4332540E-01 -0.4332540E-01 -0.4332540E-01   0.0000000E+00  0.0000000E+00 -0.1000000E+01
 -0.4332540E-01 -0.4332540E-01 -0.4332540E-01   0.0000000E+00  0.0000000E+00 -0.1000000E+01
           4
 -0.4332540E-01 -0.4332540E-01  0.4332540E-01  -0.0000000E+00 -0.3544063E-16  0.1000000E+01
  0.4332540E-01 -0.4332540E-01  0.4332540E-01  -0.0000000E+00 -0.3544063E-16  0.1000000E+01
  0.4332540E-01  0.4332540E-01  0.4332540E-01  -0.0000000E+00 -0.3544063E-16  0.1000000E+01
 -0.4332540E-01  0.4332540E-01  0.4332540E-01  -0.0000000E+00 -0.3544063E-16  0.1000000E+01
           4
 -0.4332540E-01  0.4332540E-01  0.4332540E-01   0.0000000E+00  0.1000000E+01 -0.2231910E-16
  0.4332540E-01  0.4332540E-01  0.4332540E-01   0.0000000E+00  0.1000000E+01 -0.2231910E-16
  0.4332540E-01  0.4332540E-01 -0.4332540E-01   0.0000000E+00  0.1000000E+01 -0.2231910E-16
 -0.4332540E-01  0.4332540E-01 -0.4332540E-01   0.0000000E+00  0.1000000E+01 -0.2231910E-16
           4
  0.4332540E-01 -0.4332540E-01 -0.4332540E-01   0.1000000E+01 -0.0000000E+00 -0.0000000E+00
  0.4332540E-01  0.4332540E-01 -0.4332540E-01   0.1000000E+01 -0.0000000E+00 -0.0000000E+00
  0.4332540E-01  0.4332540E-01  0.4332540E-01   0.1000000E+01 -0.0000000E+00 -0.0000000E+00
  0.4332540E-01 -0.4332540E-01  0.4332540E-01   0.1000000E+01 -0.0000000E+00 -0.0000000E+00
 BRILLOUIN-ZONE-PRIMCELL_END
 BRILLOUIN-ZONE-CONVCELL
           4
 -0.4332540E-01 -0.4332540E-01  0.4332540E-01  -0.1000000E+01  0.0000000E+00  0.0000000E+00
 -0.4332540E-01  0.4332540E-01  0.4332540E-01  -0.1000000E+01  0.0000000E+00  0.0000000E+00
 -0.4332540E-01  0.4332540E-01 -0.4332540E-01  -0.1000000E+01  0.0000000E+00  0.0000000E+00
 -0.4332540E-01 -0.4332540E-01 -0.4332540E-01  -0.1000000E+01  0.0000000E+00  0.0000000E+00
           4
 -0.4332540E-01 -0.4332540E-01 -0.4332540E-01  -0.0000000E+00 -0.1000000E+01 -0.0000000E+00
  0.4332540E-01 -0.4332540E-01 -0.4332540E-01  -0.0000000E+00 -0.1000000E+01 -0.0000000E+00
  0.4332540E-01 -0.4332540E-01  0.4332540E-01  -0.0000000E+00 -0.1000000E+01 -0.0000000E+00
 -0.4332540E-01 -0.4332540E-01  0.4332540E-01  -0.0000000E+00 -0.1000000E+01 -0.0000000E+00
           4
 -0.4332540E-01  0.4332540E-01 -0.4332540E-01   0.0000000E+00  0.0000000E+00 -0.1000000E+01
  0.4332540E-01  0.4332540E-01 -0.4332540E-01   0.0000000E+00  0.0000000E+00 -0.1000000E+01
  0.4332540E-01 -0.4332540E-01 -0.4332540E-01   0.0000000E+00  0.0000000E+00 -0.1000000E+01
 -0.4332540E-01 -0.4332540E-01 -0.4332540E-01   0.0000000E+00  0.0000000E+00 -0.1000000E+01
           4
 -0.4332540E-01 -0.4332540E-01  0.4332540E-01  -0.0000000E+00 -0.3544063E-16  0.1000000E+01
  0.4332540E-01 -0.4332540E-01  0.4332540E-01  -0.0000000E+00 -0.3544063E-16  0.1000000E+01
  0.4332540E-01  0.4332540E-01  0.4332540E-01  -0.0000000E+00 -0.3544063E-16  0.1000000E+01
 -0.4332540E-01  0.4332540E-01  0.4332540E-01  -0.0000000E+00 -0.3544063E-16  0.1000000E+01
           4
 -0.4332540E-01  0.4332540E-01  0.4332540E-01   0.0000000E+00  0.1000000E+01 -0.2231910E-16
  0.4332540E-01  0.4332540E-01  0.4332540E-01   0.0000000E+00  0.1000000E+01 -0.2231910E-16
  0.4332540E-01  0.4332540E-01 -0.4332540E-01   0.0000000E+00  0.1000000E+01 -0.2231910E-16
 -0.4332540E-01  0.4332540E-01 -0.4332540E-01   0.0000000E+00  0.1000000E+01 -0.2231910E-16
           4
  0.4332540E-01 -0.4332540E-01 -0.4332540E-01   0.1000000E+01 -0.0000000E+00 -0.0000000E+00
  0.4332540E-01  0.4332540E-01 -0.4332540E-01   0.1000000E+01 -0.0000000E+00 -0.0000000E+00
  0.4332540E-01  0.4332540E-01  0.4332540E-01   0.1000000E+01 -0.0000000E+00 -0.0000000E+00
  0.4332540E-01 -0.4332540E-01  0.4332540E-01   0.1000000E+01 -0.0000000E+00 -0.0000000E+00
 BRILLOUIN-ZONE-CONVCELL_END
 ATOMS
   32    0.0000000000    0.0000000000    0.0000000000    0.0000000000    0.0000000000    0.0000000000
   32    5.7702884070    5.7702884070    0.0000000000    0.0000000000    0.0000000000    0.0000000000
   32    5.7702884070    0.0000000000    5.7702884070    0.0000000000    0.0000000000    0.0000000000
   32    0.0000000000    5.7702884070    5.7702884070    0.0000000000    0.0000000000    0.0000000000
   32    8.6554325170    8.6554325170    5.7703567150    0.0000000500    0.0000000500   -0.0000292200
   32    8.6554326440    2.8851441690    0.0000686780    0.0000000700   -0.0000000700   -0.0000295800
   32    2.8851441690    8.6554326440    0.0000686780   -0.0000000700    0.0000000700   -0.0000295800
   32    2.8851442960    2.8851442960    5.7703567150   -0.0000000500   -0.0000000500   -0.0000292200
   32   11.5405081350    8.6554326440    8.6554326440    0.0000295800    0.0000000700    0.0000000700
   32   11.5405081350    2.8851441690    2.8851441690    0.0000295800   -0.0000000700   -0.0000000700
   32    5.7702200980    8.6554325170    2.8851442960    0.0000292200    0.0000000500   -0.0000000500
   32    5.7702200980    2.8851442960    8.6554325170    0.0000292200   -0.0000000500    0.0000000500
   32    5.7703451750    8.6554325170    8.6554325170   -0.0000292200    0.0000000500    0.0000000500
   32    5.7703451750    2.8851442960    2.8851442960   -0.0000292200   -0.0000000500   -0.0000000500
   32    0.0000571370    8.6554326440    2.8851441690   -0.0000295800    0.0000000700   -0.0000000700
   32    0.0000571370    2.8851441690    8.6554326440   -0.0000295800   -0.0000000700    0.0000000700
   32    8.6554326440    8.6554326440   11.5405196760    0.0000000700    0.0000000700    0.0000295800
   32    8.6554325170    2.8851442960    5.7702316390    0.0000000500   -0.0000000500    0.0000292200
   32    2.8851442960    8.6554325170    5.7702316390   -0.0000000500    0.0000000500    0.0000292200
   32    2.8851441690    2.8851441690   11.5405196760   -0.0000000700   -0.0000000700    0.0000295800
   32    8.6554325170    5.7703451750    8.6554325170    0.0000000500   -0.0000292200    0.0000000500
   32    8.6554326440    0.0000571370    2.8851441690    0.0000000700   -0.0000295800   -0.0000000700
   32    2.8851442960    5.7703451750    2.8851442960   -0.0000000500   -0.0000292200   -0.0000000500
   32    2.8851441690    0.0000571370    8.6554326440   -0.0000000700   -0.0000295800    0.0000000700
   32    8.6554326440   11.5405196760    8.6554326440    0.0000000700    0.0000295800    0.0000000700
   32    8.6554325170    5.7702316390    2.8851442960    0.0000000500    0.0000292200   -0.0000000500
   32    2.8851441690   11.5405196760    2.8851441690   -0.0000000700    0.0000295800   -0.0000000700
   32    2.8851442960    5.7702316390    8.6554325170   -0.0000000500    0.0000292200    0.0000000500
   32    5.7702884070    5.7702884070    5.7702884070    0.0000000000    0.0000000000    0.0000000000
   32    5.7702884070    0.0000000000    0.0000000000    0.0000000000    0.0000000000    0.0000000000
   32    0.0000000000    5.7702884070    0.0000000000    0.0000000000    0.0000000000    0.0000000000
   32    0.0000000000    0.0000000000    5.7702884070    0.0000000000    0.0000000000    0.0000000000
   32    1.4425428460    1.4425428460    1.4425428460    0.0000194600    0.0000194600    0.0000194600
   32    1.4425435160    7.2128314380    7.2128314380    0.0000191500    0.0000194700    0.0000194700
   32    7.2128314380    1.4425435160    7.2128314380    0.0000194700    0.0000191500    0.0000194700
   32    7.2128314380    7.2128314380    1.4425435160    0.0000194700    0.0000194700    0.0000191500
   32    1.4425435160    4.3277453760    4.3277569160    0.0000191500   -0.0000194700   -0.0000194700
   32    1.4425428460   10.0980339670   10.0980455070    0.0000194600   -0.0000194600   -0.0000194600
   32    7.2128314380    4.3277453760   10.0980448380    0.0000194700   -0.0000194700   -0.0000191500
   32    7.2128314380   10.0980332980    4.3277569160    0.0000194700   -0.0000191500   -0.0000194700
   32    4.3277684570    4.3277684570    1.4425319750   -0.0000194700   -0.0000194700    0.0000191500
   32    4.3277684570   10.0980563790    7.2128198970   -0.0000194700   -0.0000191500    0.0000194700
   32   10.0980563790    4.3277684570    7.2128198970   -0.0000191500   -0.0000194700    0.0000194700
   32   10.0980570480   10.0980570480    1.4425313060   -0.0000194600   -0.0000194600    0.0000194600
   32    4.3277453760    1.4425435160    4.3277569160   -0.0000194700    0.0000191500   -0.0000194700
   32    4.3277453760    7.2128314380   10.0980448380   -0.0000194700    0.0000194700   -0.0000191500
   32   10.0980339670    1.4425428460   10.0980455070   -0.0000194600    0.0000194600   -0.0000194600
   32   10.0980332980    7.2128314380    4.3277569160   -0.0000191500    0.0000194700   -0.0000194700
   32    4.3277436560    4.3277436560    7.2128331570   -0.0000146700   -0.0000146700    0.0000146700
   32    4.3277438640   10.0980323510    1.4425444620   -0.0000147600   -0.0000147000    0.0000147000
   32   10.0980323510    4.3277438640    1.4425444620   -0.0000147000   -0.0000147600    0.0000147000
   32   10.0980323510   10.0980323510    7.2128329490   -0.0000147000   -0.0000147000    0.0000147600
   32    7.2128331570    4.3277436560    4.3277551970    0.0000146700   -0.0000146700   -0.0000146700
   32    7.2128329490   10.0980323510   10.0980438920    0.0000147600   -0.0000147000   -0.0000147000
   32    1.4425444620    4.3277438640   10.0980438920    0.0000147000   -0.0000147600   -0.0000147000
   32    1.4425444620   10.0980323510    4.3277554040    0.0000147000   -0.0000147000   -0.0000147600
   32    7.2128331570    7.2128331570    7.2128331570    0.0000146700    0.0000146700    0.0000146700
   32    7.2128329490    1.4425444620    1.4425444620    0.0000147600    0.0000147000    0.0000147000
   32    1.4425444620    7.2128329490    1.4425444620    0.0000147000    0.0000147600    0.0000147000
   32    1.4425444620    1.4425444620    7.2128329490    0.0000147000    0.0000147000    0.0000147600
   32    4.3277436560    7.2128331570    4.3277551970   -0.0000146700    0.0000146700   -0.0000146700
   32    4.3277438640    1.4425444620   10.0980438920   -0.0000147600    0.0000147000   -0.0000147000
   32   10.0980323510    7.2128329490   10.0980438920   -0.0000147000    0.0000147600   -0.0000147000
   32   10.0980323510    1.4425444620    4.3277554040   -0.0000147000    0.0000147000   -0.0000147600
   32    0.0000000000    0.0000000000   11.5405742520    0.0000000000    0.0000000000    0.0000000000
   32    5.7702884070    5.7702884070   11.5405742520    0.0000000000    0.0000000000    0.0000000000
   32    5.7702884070    0.0000000000   11.5405742520    0.0000000000    0.0000000000    0.0000000000
   32    0.0000000000    5.7702884070   11.5405742520    0.0000000000    0.0000000000    0.0000000000
   32    0.0000000000   11.5405742520    0.0000000000    0.0000000000    0.0000000000    0.0000000000
   32    5.7702884070   11.5405742520    5.7702884070    0.0000000000    0.0000000000    0.0000000000
   32    5.7702884070   11.5405742520    0.0000000000    0.0000000000    0.0000000000    0.0000000000
   32    0.0000000000   11.5405742520    5.7702884070    0.0000000000    0.0000000000    0.0000000000
   32    0.0000000000   11.5405742520   11.5405742520    0.0000000000    0.0000000000    0.0000000000
   32    5.7702884070   11.5405742520   11.5405742520    0.0000000000    0.0000000000    0.0000000000
   32   11.5405742520    0.0000000000    0.0000000000    0.0000000000    0.0000000000    0.0000000000
   32   11.5405742520    5.7702884070    5.7702884070    0.0000000000    0.0000000000    0.0000000000
   32   11.5405742520    5.7702884070    0.0000000000    0.0000000000    0.0000000000    0.0000000000
   32   11.5405742520    0.0000000000    5.7702884070    0.0000000000    0.0000000000    0.0000000000
   32   11.5405742520    0.0000000000   11.5405742520    0.0000000000    0.0000000000    0.0000000000
   32   11.5405742520    5.7702884070   11.5405742520    0.0000000000    0.0000000000    0.0000000000
   32   11.5405742520   11.5405742520    0.0000000000    0.0000000000    0.0000000000    0.0000000000
   32   11.5405742520   11.5405742520    5.7702884070    0.0000000000    0.0000000000    0.0000000000
   32   11.5405742520   11.5405742520   11.5405742520    0.0000000000    0.0000000000    0.0000000000
 FRAMES
1      0.0000000000    0.0000000000    0.0000000000     11.5405742520    0.0000000000    0.0000000000
1      0.0000000000    0.0000000000    0.0000000000      0.0000000000   11.5405742520    0.0000000000
1      0.0000000000    0.0000000000    0.0000000000      0.0000000000    0.0000000000   11.5405742520
1      0.0000000000    0.0000000000   11.5405742520     11.5405742520    0.0000000000   11.5405742520
1      0.0000000000    0.0000000000   11.5405742520      0.0000000000   11.5405742520   11.5405742520
1      0.0000000000   11.5405742520    0.0000000000     11.5405742520   11.5405742520    0.0000000000
1      0.0000000000   11.5405742520    0.0000000000      0.0000000000   11.5405742520   11.5405742520
1      0.0000000000   11.5405742520   11.5405742520     11.5405742520   11.5405742520   11.5405742520