 *******************************************************************************
 ** Cite this program as: MOPAC2016, Version: 22.066W, James J. P. Stewart,   **
 **                           web-site: HTTP://OpenMOPAC.net.                 **
 *******************************************************************************
 **                                                                           **
 **                                MOPAC2016                                  **
 **                                                                           **
 *******************************************************************************

                              RM1 CALCULATION RESULTS

 *******************************************************************************
 *  CALCULATION DONE:                                Tue May  3 20:34:33 2022  *
 *  RM1        - The RM1 Hamiltonian to be used
 *
 *
 *
 *                 CHARGE ON SYSTEM = +1
 *
 *
 *
 *  TS         - USE EF ROUTINE FOR TS SEARCH
 *  T=         - A TIME OF 172800.0 SECONDS REQUESTED
 *  DUMP=N     - RESTART FILE WRITTEN EVERY 7200.0 SECONDS REQUESTED
 *  PRTCHARGE  - PRINT CHARGES IN ARC FILE
 *******************************************************************************
RM1 CHARGE=1 TS PRTCHAR
 calculation to obtain a TS structure

  ATOM    CHEMICAL      BOND LENGTH      BOND ANGLE     TWIST ANGLE 
 NUMBER    SYMBOL       (ANGSTROMS)      (DEGREES)       (DEGREES) 
   (I)                     NA:I           NB:NA:I       NC:NB:NA:I       NA    NB    NC 
     1       C          0.00000000       0.0000000       0.0000000        0     0     0
     2       C          1.42722698  *    0.0000000       0.0000000        1     0     0
     3       C          1.50893682  *  117.9874984  *    0.0000000        1     2     0
     4       C          1.50893686  *  117.9905787  * -142.8948345  *     1     2     3
     5       C          2.00000000  *   54.8236405  * -108.5518416  *     2     1     3
     6       H          1.10146351  *  117.5708137  *  -68.7297152  *     5     1     2
     7       H          1.11126094  *   99.1608557  *  179.9934803  *     5     1     2
     8       H          1.10145436  *  117.5759097  *   68.7126872  *     5     1     2
     9       H          1.10252119  *  110.8110927  *  -81.0660940  *     3     1     2
    10       H          1.10195979  *  111.9136124  *  160.4072236  *     3     1     2
    11       H          1.10071582  *  113.6326759  *   39.4635909  *     3     1     2
    12       H          1.09749970  *  122.8652576  *  -17.4174273  *     2     1     3
    13       H          1.09749838  *  122.8666855  *  160.3145424  *     2     1     3
    14       H          1.10250612  *  110.8141924  *   81.0366895  *     4     1     2
    15       H          1.10072252  *  113.6291387  *  -39.4965941  *     4     1     2
    16       H          1.10196476  *  111.9116941  * -160.4332016  *     4     1     2
 


          CARTESIAN COORDINATES 

    NO.       ATOM           X           Y           Z

     1         C          0.0000      0.0000      0.0000
     2         C          1.4272      0.0000      0.0000
     3         C         -0.7081      1.3325      0.0000
     4         C         -0.7082     -1.0627      0.8038
     5         C          0.2750     -0.5201     -1.5498
     6         H          0.7089      0.2012     -2.2602
     7         H         -0.7775     -0.6337     -1.8877
     8         H          0.7092     -1.5238     -1.6813
     9         H         -0.7506      1.7535      1.0181
    10         H         -1.7516      1.2436     -0.3428
    11         H         -0.2277      2.0874     -0.6409
    12         H          2.0228      0.8796     -0.2759
    13         H          2.0228     -0.8680      0.3105
    14         H         -0.7503     -0.7845      1.8698
    15         H         -0.2281     -2.0516      0.7476
    16         H         -1.7518     -1.1982      0.4771

  H: (RM1): G.B. ROCHA, R.O. FREIRE, A.M.SIMAS, J.J.P. STEWART, J. COMP. CHEM. 27, 1101 (2006)
  C: (RM1): G.B. ROCHA, R.O. FREIRE, A.M.SIMAS, J.J.P. STEWART, J. COMP. CHEM. 27, 1101 (2006)

           Empirical Formula: C5 H11  =    16 atoms



      MOLECULAR POINT GROUP   :   Cs  


      RHF CALCULATION, NO. OF DOUBLY OCCUPIED LEVELS = 15


          Transition state refinement using EF

          HESSIAN CALCULATED NUMERICALLY

 CYCLE:     1 TIME:   0.141 TIME LEFT:  2.00D  GRAD.:    13.198 HEAT:  193.1307
 CYCLE:     2 TIME:   0.008 TIME LEFT:  2.00D  GRAD.:     5.680 HEAT:  193.0932
 CYCLE:     3 TIME:   0.000 TIME LEFT:  2.00D  GRAD.:     5.186 HEAT:  193.2095
 CYCLE:     4 TIME:   0.000 TIME LEFT:  2.00D  GRAD.:     2.184 HEAT:  193.1433
 CYCLE:     5 TIME:   0.008 TIME LEFT:  2.00D  GRAD.:     0.364 HEAT:  193.1405

     GRADIENT =  0.36373 IS LESS THAN CUTOFF =  1.00000



 -------------------------------------------------------------------------------
 RM1 CHARGE=1 TS PRTCHAR
 calculation to obtain a TS structure



     GEOMETRY OPTIMISED USING EIGENVECTOR FOLLOWING (TS).     
     SCF FIELD WAS ACHIEVED                                   


                              RM1 CALCULATION
                                                       MOPAC2016 (Version: 22.066W)
                                                       Tue May  3 20:34:33 2022




          FINAL HEAT OF FORMATION =        193.14052 KCAL/MOL =     808.09994 KJ/MOL


          COSMO AREA              =        128.49 SQUARE ANGSTROMS
          COSMO VOLUME            =        122.02 CUBIC ANGSTROMS

          GRADIENT NORM           =          0.36373          =       0.09093 PER ATOM
          IONIZATION POTENTIAL    =         16.748109 EV
          HOMO LUMO ENERGIES (EV) =        -16.748 -6.419
          NO. OF FILLED LEVELS    =         15
          MOLECULAR WEIGHT        =         71.1419         POINT GROUP:  Cs  

          MOLECULAR DIMENSIONS (Angstroms)

            Atom       Atom       Distance
            H    14    H     6     4.55010
            H    13    H    10     4.35940
            H     8    H     9     3.13206


          SCF CALCULATIONS        =         48
 
          WALL-CLOCK TIME         =          0.180 SECONDS
          COMPUTATION TIME        =          0.328 SECONDS




  ATOM    CHEMICAL      BOND LENGTH      BOND ANGLE     TWIST ANGLE 
 NUMBER    SYMBOL       (ANGSTROMS)      (DEGREES)       (DEGREES) 
   (I)                     NA:I           NB:NA:I       NC:NB:NA:I       NA    NB    NC 
     1       C          0.00000000       0.0000000       0.0000000        0     0     0
     2       C          1.41468115  *    0.0000000       0.0000000        1     0     0
     3       C          1.50156340  *  119.1288864  *    0.0000000        1     2     0
     4       C          1.50148051  *  119.1509833  * -149.7791287  *     1     2     3
     5       C          2.02151879  *   58.9321427  * -105.1096040  *     2     1     3
     6       H          1.09634011  *  116.4031626  *  -68.0718662  *     5     1     2
     7       H          1.10427214  *   94.8994932  * -179.6694910  *     5     1     2
     8       H          1.09627792  *  116.2158581  *   68.7133115  *     5     1     2
     9       H          1.10373746  *  110.4693716  *  -84.8816502  *     3     1     2
    10       H          1.10222444  *  112.3614338  *  156.7961299  *     3     1     2
    11       H          1.10104016  *  113.8443464  *   35.2562552  *     3     1     2
    12       H          1.09701722  *  122.9778713  *  -12.6094655  *     2     1     3
    13       H          1.09703061  *  122.9703458  *  162.5585823  *     2     1     3
    14       H          1.10373975  *  110.4581106  *   85.1950320  *     4     1     2
    15       H          1.10102924  *  113.8646850  *  -34.9446398  *     4     1     2
    16       H          1.10223552  *  112.3551254  * -156.4914633  *     4     1     2

                             CARTESIAN COORDINATES

   1    C        0.000000000     0.000000000     0.000000000
   2    C        1.414681151     0.000000000     0.000000000
   3    C       -0.730924787     1.311656048     0.000000000
   4    C       -0.731390215    -1.133084638     0.660023692
   5    C        0.371470549    -0.451355627    -1.671684165
   6    H        0.832288102     0.323883491    -2.295072595
   7    H       -0.684488863    -0.529422562    -1.985168178
   8    H        0.822158883    -1.439991630    -1.817643573
   9    H       -0.838229144     1.693729133     1.029923448
  10    H       -1.753442338     1.221907482    -0.401623923
  11    H       -0.229246812     2.100760395    -0.581311431
  12    H        2.011804173     0.898070565    -0.200898338
  13    H        2.011690582    -0.878042012     0.275858894
  14    H       -0.843658484    -0.941991713     1.741282573
  15    H       -0.227558376    -2.106934493     0.559847241
  16    H       -1.751988961    -1.260661350     0.263759240


           Empirical Formula: C5 H11  =    16 atoms



      MOLECULAR POINT GROUP   :   Cs  


                  EIGENVALUES  
 -42.18373 -33.60012 -32.34453 -31.17139 -25.18691 -21.45417 -20.86558 -20.14501
 -19.04990 -18.74146 -18.34920 -17.78764 -17.58057 -17.32452 -16.74811  -6.41893
  -4.23910  -2.16130  -2.11415  -1.51218  -1.25800  -1.14007  -1.11462  -0.79020
  -0.37864  -0.16470  -0.10929  -0.07628  -0.02864   0.76148   0.79965


              NET ATOMIC CHARGES AND DIPOLE CONTRIBUTIONS

  ATOM NO.   TYPE          CHARGE      No. of ELECS.   s-Pop       p-Pop       
    1          C           0.045361        3.9546     1.20946     2.74518
    2          C           0.164678        3.8353     1.25163     2.58369
    3          C          -0.231586        4.2316     1.15878     3.07281
    4          C          -0.231427        4.2314     1.15874     3.07268
    5          C          -0.253549        4.2535     1.20671     3.04684
    6          H           0.144635        0.8554     0.85537
    7          H           0.187364        0.8126     0.81264
    8          H           0.144525        0.8555     0.85548
    9          H           0.131589        0.8684     0.86841
   10          H           0.124745        0.8753     0.87526
   11          H           0.107015        0.8930     0.89298
   12          H           0.151632        0.8484     0.84837
   13          H           0.151631        0.8484     0.84837
   14          H           0.131640        0.8684     0.86836
   15          H           0.107046        0.8930     0.89295
   16          H           0.124702        0.8753     0.87530
 DIPOLE           X         Y         Z       TOTAL
 POINT-CHG.     2.140    -0.154    -0.575     2.221
 HYBRID         0.189    -0.099    -0.371     0.428
 SUM            2.329    -0.253    -0.946     2.526


          ATOMIC ORBITAL ELECTRON POPULATIONS

     Atom    s        px        py        pz   
    1  C   1.20946   0.93340   1.01867   0.79312
    2  C   1.25163   0.97208   1.05381   0.55781
    3  C   1.15878   1.05027   0.92143   1.10111
    4  C   1.15874   1.05007   0.96271   1.05990
    5  C   1.20671   1.12707   1.08587   0.83390
    6  H   0.85537
    7  H   0.81264
    8  H   0.85548
    9  H   0.86841
   10  H   0.87526
   11  H   0.89298
   12  H   0.84837
   13  H   0.84837
   14  H   0.86836
   15  H   0.89295
   16  H   0.87530

 **********************
 *                    *
 * JOB ENDED NORMALLY *
 *                    *
 **********************



 TOTAL JOB TIME:             0.19 SECONDS

 == MOPAC DONE ==
