 *******************************************************************************
 ** Cite this program as: MOPAC2016, Version: 22.067 , James J. P. Stewart,   **
 **                           web-site: HTTP://OpenMOPAC.net.                 **
 *******************************************************************************
 **                                                                           **
 **                                MOPAC2016                                  **
 **                                                                           **
 *******************************************************************************

                              PM7 CALCULATION RESULTS

 *******************************************************************************
 *  CALCULATION DONE:                                Sun Apr 10 10:53:05 2022  *
 *  PM7        - The PM7 Hamiltonian to be used
 *  SINGLET    - SPIN STATE DEFINED AS A SINGLET
 *  NOOPT      - DO NOT OPTIMIZE ANY COORDINATES
 *
 *
 *
 *                 CHARGE ON SYSTEM = 0
 *
 *
 *
 *  T=         - A TIME OF 172800.0 SECONDS REQUESTED
 *  DUMP=N     - RESTART FILE WRITTEN EVERY 7200.0 SECONDS REQUESTED
 *  AUX        - OUTPUT AUXILIARY INFORMATION
 *  LARGE      - EXPANDED OUTPUT TO BE PRINTED
 *******************************************************************************
 AUX LARGE CHARGE=0 SINGLET NOOPT PM7
 Title

   ATOM   CHEMICAL          X               Y               Z
  NUMBER   SYMBOL      (ANGSTROMS)     (ANGSTROMS)     (ANGSTROMS)
 
     1      Zn          1.54040000     16.07050000     10.91702000   
     2      Zn         -0.31733000     13.83252000     12.14710000   
     3       O          0.74553000     14.61589000     13.60290000   
     4       O          2.07180000     16.08320000     12.81959000   
     5       O         11.99781000     10.53680000     30.96638000   
     6       O         11.19722000      8.93749000     29.62158000   
     7       O          0.08839000     27.35580000     29.81590000   
     8       O          2.10788000     28.14692000     30.03590000   
     9       O          1.09660000     17.95882000     10.51172000   
    10       O         -0.24271000     11.97812000     11.66229000   
    11       C          4.61961000     17.61638000     23.15019000   
    12       C          5.42413000     16.71668000     23.83961000   
    13       H          5.71719000     15.93948000     23.42191000   
    14       C          5.79262000     16.97929000     25.15352000   
    15       C          5.35671000     18.14169000     25.77848000   
    16       H          5.60282000     18.31830000     26.65908000   
    17       C          4.55219000     19.04139000     25.08920000   
    18       C          4.18358000     18.77869000     23.77520000   
    19       H          3.64672000     19.38149000     23.31188000   
    20       C          3.32730000     16.72430000     19.13060000   
    21       C          3.51671000     15.68719000     20.03709000   
    22       H          3.36837000     14.80872000     19.77431000   
    23       C          3.92428000     15.96611000     21.33568000   
    24       H          4.05249000     15.27280000     21.94080000   
    25       C          4.14303000     17.28119000     21.72931000   
    26       C          3.95372000     18.31739000     20.82328000   
    27       H          4.10188000     19.19682000     21.08611000   
    28       C          3.54608000     18.03942000     19.52380000   
    29       H          3.41777000     18.73282000     18.91948000   
    30       C          2.04551000     15.81248000     15.10470000   
    31       C          1.55098000     15.10471000     16.19391000   
    32       H          0.92079000     14.43478000     16.06320000   
    33       C          1.99741000     15.40210000     17.47651000   
    34       H          1.66468000     14.93040000     18.20430000   
    35       C          2.93771000     16.40722000     17.66951000   
    36       C          3.43218000     17.11490000     16.58030000   
    37       H          4.06289000     17.78672000     16.71059000   
    38       C          2.98632000     16.81760000     15.29770000   
    39       H          3.31900000     17.29110000     14.56940000   
    40       C          1.41011000     15.59668000     13.74419000   
    41       C          6.64971000     16.05892000     25.92490000   
    42       C          6.74098000     14.76911000     25.41499000   
    43       H          6.30507000     14.55192000     24.62368000   
    44       C          7.48391000     13.80680000     26.08870000   
    45       H          7.54582000     12.94350000     25.74929000   
    46       C          8.13523000     14.13379000     27.27220000   
    47       C          8.04390000     15.42368000     27.78210000   
    48       H          8.47959000     15.64218000     28.57599000   
    49       C          7.30079000     16.38640000     27.10852000   
    50       H          7.23889000     17.25060000     27.45039000   
    51       C          8.99541000     12.99360000     27.86589000   
    52       C          9.10510000     11.65280000     27.51678000   
    53       H          8.65649000     11.32621000     26.76910000   
    54       C          9.88652000     10.79680000     28.28359000   
    55       H          9.95961000      9.89801000     28.05132000   
    56       C         10.55839000     11.28111000     29.39989000   
    57       C         10.44844000     12.62228000     29.74899000   
    58       H         10.89858000     12.94810000     30.49710000   
    59       C          9.66699000     13.47832000     28.98219000   
    60       H          9.59551000     14.37621000     29.21501000   
    61       C         11.31010000     10.13678000     30.04652000   
    62       C          4.11731000     20.37759000     25.75352000   
    63       C          4.96027000     21.04401000     26.63369000   
    64       H          5.81348000     20.71062000     26.80300000   
    65       C          4.53372000     22.20631000     27.26420000   
    66       H          5.09818000     22.65229000     27.85239000   
    67       C          3.25923000     22.70189000     27.01449000   
    68       C          2.41637000     22.03512000     26.13009000   
    69       H          1.56331000     22.36850000     25.96091000   
    70       C          2.84818000     20.87281000     25.49958000   
    71       H          2.28119000     20.43130000     24.91139000   
    72       C          2.72959000     23.81378000     27.71571000   
    73       C          3.58980000     24.52070000     28.54849000   
    74       H          4.45311000     24.21110000     28.69448000   
    75       C          3.15719000     25.69071000     29.16161000   
    76       H          3.73258000     26.16191000     29.71848000   
    77       C          1.86522000     26.15430000     28.94199000   
    78       C          1.00559000     25.44738000     28.10921000   
    79       H          0.14309000     25.75640000     27.96241000   
    80       C          1.43789000     24.27692000     27.49651000   
    81       H          0.86359000     23.80572000     26.93841000   
    82       C          1.42017000     27.31070000     29.80739000   
    83       C          1.14082000     20.68891000     10.47071000   
    84       H          1.94557000     20.22852000     10.39281000   
    85       C          1.16451000     22.07071000     10.46860000   
    86       H          1.98201000     22.50821000     10.39281000   
    87       C          1.13101000     25.11670000     10.36742000   
    88       H          1.91441000     24.67068000     10.15161000   
    89       C          1.14321000     26.48489000     10.46470000   
    90       H          1.95077000     26.94132000     10.44782000   
    91       C          0.20028000      9.29430000      9.42839000   
    92       H          0.36678000      9.76280000      8.64520000   
    93       C          0.17169000      7.89322000      9.42758000   
    94       H          0.26270000      7.43810000      8.62400000   
    95       C         -1.10859000      4.93319000     10.91330000   
    96       H         -1.90140000      5.38380000     11.08679000   
    97       C         -1.07690000      3.57720000     10.99370000   
    98       H         50.21679000      3.10860000     11.33650000   
    99      Zn         11.32342000     38.35110000     10.91702000   
   100      Zn         14.19041000     37.86129000     12.14710000   
   101       O         12.98050000     38.38998000     13.60290000   
   102       O         11.04659000     38.80501000     12.81959000   
   103       O         36.89790000      5.12200000     30.96638000   
   104       O         38.68333000      5.22828000     29.62158000   
   105       O          2.27599000     31.45111000     29.81590000   
   106       O          0.58111000     32.80439000     30.03590000   
   107       O          9.90993000     37.02269000     10.51172000   
   108       O         15.75900000     38.85321000     11.66229000   
   109       C          8.44502000     40.24479000     23.15019000   
   110       C          8.82189000     41.39142000     23.83961000   
   111       H          9.34838000     42.03391000     23.42191000   
   112       C          8.41008000     41.57929000     25.15352000   
   113       C          7.62151000     40.62062000     25.77848000   
   114       H          7.34548000     40.74541000     26.65908000   
   115       C          7.24458000     39.47399000     25.08920000   
   116       C          7.65629000     39.28612000     23.77520000   
   117       H          7.40273000     38.51978000     23.31188000   
   118       C          9.86361000     39.57180000     19.13060000   
   119       C         10.66711000     40.25430000     20.03709000   
   120       H         11.50209000     40.56520000     19.77431000   
   121       C         10.22178000     40.46780000     21.33568000   
   122       H         10.75818000     40.92562000     21.94080000   
   123       C          8.97351000     39.99970000     21.72931000   
   124       C          8.17081000     39.31770000     20.82328000   
   125       H          7.33508000     39.00630000     21.08611000   
   126       C          8.61539000     39.10370000     19.52380000   
   127       H          8.07899000     38.64588000     18.91948000   
   128       C         11.29418000     38.91759000     15.10470000   
   129       C         12.15439000     38.84330000     16.19391000   
   130       H         13.04972000     38.63241000     16.06320000   
   131       C         11.67371000     39.08109000     17.47651000   
   132       H         12.24861000     39.02892000     18.20430000   
   133       C         10.33308000     39.39289000     17.66951000   
   134       C          9.47292000     39.46719000     16.58030000   
   135       H          8.57580000     39.67758000     16.71059000   
   136       C          9.95342000     39.22980000     15.29770000   
   137       H          9.37699000     39.28121000     14.56940000   
   138       C         11.79880000     38.47518000     13.74419000   
   139       C          8.77869000     42.78169000     25.92490000   
   140       C          9.85013000     43.50568000     25.41499000   
   141       H         10.25611000     43.23681000     24.62368000   
   142       C         10.31209000     44.63019000     26.08870000   
   143       H         37.03970000      0.06310000     25.74929000   
   144       C          9.70312000     45.03070000     27.27220000   
   145       C          8.63178000     44.30680000     27.78210000   
   146       H          8.22468000     44.57482000     28.57599000   
   147       C          8.16948000     43.18180000     27.10852000   
   148       H          7.45223000     42.69609000     27.45039000   
   149       C         36.27159000      1.29350000     27.86589000   
   150       C         37.37780000      2.05890000     27.51678000   
   151       H         37.88499000      1.83360000     26.76910000   
   152       C         37.72842000      3.16360000     28.28359000   
   153       H         38.47031000      3.67630000     28.05132000   
   154       C         36.97311000      3.50330000     29.39989000   
   155       C         35.86661000      2.73740000     29.74899000   
   156       H         35.35938000      2.96440000     30.49710000   
   157       C         35.51589000      1.63270000     28.98219000   
   158       H         34.77411000      1.12180000     29.21501000   
   159       C         37.58821000      4.72640000     30.04652000   
   160       C          6.30483000     38.42918000     25.75352000   
   161       C          5.30622000     38.82609000     26.63369000   
   162       H          5.16839000     39.73169000     26.80300000   
   163       C          4.51288000     37.87549000     27.26420000   
   164       H          3.84440000     38.14129000     27.85239000   
   165       C          4.72102000     36.52400000     27.01449000   
   166       C          5.71982000     36.12750000     26.13009000   
   167       H          5.85770000     35.22190000     25.96091000   
   168       C          6.51061000     37.08261000     25.49958000   
   169       H          7.17638000     36.81229000     24.91139000   
   170       C          4.02291000     35.50938000     27.71571000   
   171       C          2.98060000     35.90088000     28.54849000   
   172       H          2.81699000     36.80328000     28.69448000   
   173       C          2.18360000     34.94131000     29.16161000   
   174       H          1.48780000     35.20388000     29.71848000   
   175       C          2.42807000     33.59060000     28.94199000   
   176       C          3.47010000     33.19950000     28.10921000   
   177       H          3.63371000     32.29800000     27.96241000   
   178       C          4.26760000     34.15921000     27.49651000   
   179       H          4.96290000     33.89741000     26.93841000   
   180       C          1.64912000     32.62688000     29.80739000   
   181       C          7.52342000     35.69590000     10.47071000   
   182       H          7.51981000     36.62312000     10.39281000   
   183       C          6.31500000     35.02552000     10.46860000   
   184       H          5.52729000     35.51479000     10.39281000   
   185       C          3.69380000     33.47351000     10.36742000   
   186       H          3.68839000     34.37501000     10.15161000   
   187       C          2.50280000     32.79988000     10.46470000   
   188       H          1.70372000     33.27118000     10.44782000   
   189       C         17.86178000     40.57872000      9.42839000   
   190       H         17.37267000     40.48861000      8.64520000   
   191       C         19.08950000     41.25450000      9.42758000   
   192       H         19.43797000     41.56081000      8.62400000   
   193       C         22.29299000     41.62569000     10.91330000   
   194       H         22.29920000     40.71378000     11.08679000   
   195       C         23.45152000     42.33121000     10.99370000   
   196       H         24.22142000     41.93470000     11.33650000   
   197      Zn        -12.86379000     35.68310000     10.91702000   
   198      Zn        -13.87299000     38.41089000     12.14710000   
   199       O        -13.72598000     37.09878000     13.60290000   
   200       O        -13.11841000     35.21649000     12.81959000   
   201       O         29.13731000     29.39352000     30.96638000   
   202       O         28.15251000     30.88660000     29.62158000   
   203       O         -2.36440000     31.29788000     29.81590000   
   204       O         -2.68902000     29.15339000     30.03590000   
   205       O        -11.00661000     35.12328000     10.51172000   
   206       O        -15.51629000     39.27351000     11.66229000   
   207       C        -13.06452000     32.24349000     23.15019000   
   208       C        -14.24600000     31.99660000     23.83961000   
   209       H        -15.06560000     32.13140000     23.42191000   
   210       C        -14.20281000     31.54612000     25.15352000   
   211       C        -12.97819000     31.34249000     25.77848000   
   212       H        -12.94829000     31.04109000     26.65908000   
   213       C        -11.79679000     31.58942000     25.08920000   
   214       C        -11.83990000     32.03990000     23.77520000   
   215       H        -11.04950000     32.20339000     23.31188000   
   216       C        -13.19098000     33.80870000     19.13060000   
   217       C        -14.18380000     34.16321000     20.03709000   
   218       H        -14.87051000     34.73092000     19.77431000   
   219       C        -14.14608000     33.67079000     21.33568000   
   220       H        -14.81071000     33.90642000     21.94080000   
   221       C        -13.11662000     32.82381000     21.72931000   
   222       C        -12.12451000     32.46970000     20.82328000   
   223       H        -11.43698000     31.90159000     21.08611000   
   224       C        -12.16142000     32.96171000     19.52380000   
   225       H        -11.49689000     32.72600000     18.91948000   
   226       C        -13.33972000     35.37472000     15.10470000   
   227       C        -13.70551000     36.15678000     16.19391000   
   228       H        -13.97048000     37.03760000     16.06320000   
   229       C        -13.67110000     35.62161000     17.47651000   
   230       H        -13.91334000     36.14552000     18.20430000   
   231       C        -13.27081000     34.30468000     17.66951000   
   232       C        -12.90512000     33.52262000     16.58030000   
   233       H        -12.63872000     32.64040000     16.71059000   
   234       C        -12.93972000     34.05730000     15.29770000   
   235       H        -12.69597000     33.53248000     14.56940000   
   236       C        -13.20891000     36.03289000     13.74419000   
   237       C        -15.42840000     31.26409000     25.92490000   
   238       C        -16.59110000     31.83000000     25.41499000   
   239       H        -16.56121000     32.31611000     24.62368000   
   240       C        -17.79590000     31.66781000     26.08870000   
   241       H         33.44752000     32.04580000     25.74929000   
   242       C        -17.83831000     30.94021000     27.27220000   
   243       C        -16.67570000     30.37431000     27.78210000   
   244       H        -16.70430000     29.88770000     28.57599000   
   245       C        -15.47030000     30.53650000     27.10852000   
   246       H        -14.69100000     30.15810000     27.45039000   
   247       C         32.76608000     30.76541000     27.86589000   
   248       C         31.54999000     31.34068000     27.51678000   
   249       H         31.49149000     31.89262000     26.76910000   
   250       C         30.41799000     31.09199000     28.28359000   
   251       H         29.60312000     31.47809000     28.05132000   
   252       C         30.50149000     30.26799000     29.39989000   
   253       C         31.71810000     29.69271000     29.74899000   
   254       H         31.77501000     29.13992000     30.49710000   
   255       C         32.85010000     29.94140000     28.98219000   
   256       H         33.66341000     29.55440000     29.21501000   
   257       C         29.13469000     30.18910000     30.04652000   
   258       C        -10.42209000     31.29788000     25.75352000   
   259       C        -10.26652000     30.23460000     26.63369000   
   260       H        -10.98179000     29.66248000     26.80300000   
   261       C         -9.04663000     30.02290000     27.26420000   
   262       H         -8.94261000     29.31112000     27.85239000   
   263       C         -7.98017000     30.87890000     27.01449000   
   264       C         -8.13621000     31.94209000     26.13009000   
   265       H         -7.42089000     32.51430000     25.96091000   
   266       C         -9.35884000     32.14942000     25.49958000   
   267       H         -9.45760000     32.86120000     24.91139000   
   268       C         -6.75251000     30.78158000     27.71571000   
   269       C         -6.57038000     29.68321000     28.54849000   
   270       H         -7.27013000     29.09032000     28.69448000   
   271       C         -5.34079000     29.47281000     29.16161000   
   272       H         -5.22041000     28.73891000     29.71848000   
   273       C         -4.29338000     30.35989000     28.94199000   
   274       C         -4.47571000     31.45782000     28.10921000   
   275       H         -3.77682000     32.05030000     27.96241000   
   276       C         -5.70549000     31.66871000     27.49651000   
   277       H         -5.82649000     32.40171000     26.93841000   
   278       C         -3.06932000     30.16711000     29.80739000   
   279       C         -8.66432000     33.71990000     10.47071000   
   280       H         -9.46538000     33.25320000     10.39281000   
   281       C         -7.47949000     33.00848000     10.46860000   
   282       H         -7.50938000     32.08180000     10.39281000   
   283       C         -4.82478000     31.51459000     10.36742000   
   284       H         -5.60282000     31.05911000     10.15161000   
   285       C         -3.64596000     30.81988000     10.46470000   
   286       H         -3.65452000     29.89229000     10.44782000   
   287       C        -18.06201000     40.23181000      9.42839000   
   288       H        -17.73948000     39.85328000      8.64520000   
   289       C        -19.26111000     40.95711000      9.42758000   
   290       H        -19.70069000     41.10579000      8.62400000   
   291       C        -21.18441000     43.54582000     10.91330000   
   292       H        -20.39780000     44.00720000     11.08679000   
   293       C        -22.37469000     44.19638000     10.99370000   
   294       H          3.59470000      0.00900000     11.33650000   
   295      Zn         12.86379000     35.68310000     10.24098000   
   296      Zn         13.87299000     38.41089000      9.01090000   
   297      Zn         -1.12682000     28.60100000     30.81028000   
   298       O         13.72603000     37.09878000      7.55510000   
   299       O         13.11841000     35.21649000      8.33841000   
   300       O         22.88469000     29.39352000     32.50762000   
   301       O         23.86949000     30.88660000     33.85242000   
   302       O          1.92299000     30.13959000     34.23699000   
   303       O          3.01728000     29.77511000     32.43729000   
   304       O         11.00661000     35.12328000     10.64628000   
   305       O         15.51629000     39.27351000      9.49571000   
   306       C         13.06452000     32.24349000     40.32381000   
   307       C         14.24599000     31.99660000     39.63439000   
   308       H         15.06560000     32.13140000     40.05209000   
   309       C         14.20279000     31.54612000     38.32048000   
   310       C         12.97819000     31.34249000     37.69552000   
   311       H         12.94833000     31.04109000     36.81492000   
   312       C         11.79679000     31.58942000     38.38480000   
   313       C         11.83990000     32.03990000     39.69880000   
   314       H         11.04950000     32.20339000     40.16212000   
   315       C         13.19098000     33.80870000      2.02740000   
   316       C         14.18380000     34.16321000      1.12100000   
   317       H         14.87046000     34.73092000      1.38370000   
   318       C         14.14608000     33.67079000     42.13832000   
   319       H         14.81072000     33.90642000     41.53320000   
   320       C         13.11662000     32.82381000     41.74469000   
   321       C         12.12451000     32.46970000      0.33470000   
   322       H         11.43698000     31.90159000      0.07190000   
   323       C         12.16142000     32.96171000      1.63420000   
   324       H         11.49689000     32.72600000      2.23850000   
   325       C         13.33972000     35.37472000      6.05330000   
   326       C         13.70551000     36.15678000      4.96409000   
   327       H         13.97048000     37.03760000      5.09480000   
   328       C         13.67110000     35.62161000      3.68150000   
   329       H         13.91328000     36.14552000      2.95370000   
   330       C         13.27081000     34.30468000      3.48850000   
   331       C         12.90507000     33.52262000      4.57770000   
   332       H         12.63872000     32.64040000      4.44741000   
   333       C         12.93972000     34.05730000      5.86030000   
   334       H         12.69602000     33.53248000      6.58860000   
   335       C         13.20891000     36.03289000      7.41381000   
   336       C         15.42842000     31.26409000     37.54910000   
   337       C         16.59109000     31.83000000     38.05901000   
   338       H         16.56118000     32.31611000     38.85032000   
   339       C         17.79592000     31.66781000     37.38530000   
   340       H         18.57448000     32.04580000     37.72471000   
   341       C         17.83832000     30.94021000     36.20180000   
   342       C         16.67570000     30.37431000     35.69190000   
   343       H         16.70429000     29.88770000     34.89801000   
   344       C         15.47030000     30.53650000     36.36548000   
   345       H         14.69099000     30.15810000     36.02361000   
   346       C         19.25592000     30.76541000     35.60811000   
   347       C         20.47201000     31.34068000     35.95722000   
   348       H         20.53051000     31.89262000     36.70490000   
   349       C         21.60401000     31.09199000     35.19041000   
   350       H         22.41888000     31.47809000     35.42268000   
   351       C         21.52051000     30.26799000     34.07411000   
   352       C         20.30390000     29.69271000     33.72501000   
   353       H         20.24699000     29.13992000     32.97690000   
   354       C         19.17190000     29.94140000     34.49181000   
   355       H         18.35859000     29.55440000     34.25899000   
   356       C         22.88731000     30.18910000     33.42748000   
   357       C         10.42209000     31.29788000     37.72048000   
   358       C         10.26652000     30.23460000     36.84031000   
   359       H         10.98179000     29.66248000     36.67100000   
   360       C          9.04657000     30.02290000     36.20980000   
   361       H          8.94261000     29.31112000     35.62161000   
   362       C          7.98023000     30.87890000     36.45951000   
   363       C          8.13621000     31.94209000     37.34391000   
   364       H          7.42089000     32.51430000     37.51309000   
   365       C          9.35878000     32.14942000     37.97442000   
   366       H          9.45760000     32.86120000     38.56261000   
   367       C          6.75251000     30.78158000     35.75829000   
   368       C          6.57038000     29.68321000     34.92551000   
   369       H          7.27007000     29.09032000     34.77952000   
   370       C          5.34079000     29.47281000     34.31239000   
   371       H          5.22041000     28.73891000     33.75552000   
   372       C          4.29343000     30.35989000     34.53201000   
   373       C          4.47571000     31.45782000     35.36479000   
   374       H          3.77682000     32.05030000     35.51159000   
   375       C          5.70549000     31.66871000     35.97749000   
   376       H          5.82649000     32.40171000     36.53559000   
   377       C          3.06927000     30.16711000     33.66661000   
   378       C          8.66432000     33.71990000     10.68729000   
   379       H          9.46538000     33.25320000     10.76519000   
   380       C          7.47949000     33.00848000     10.68940000   
   381       H          7.50943000     32.08180000     10.76519000   
   382       C          4.82483000     31.51459000     10.79058000   
   383       H          5.60282000     31.05911000     11.00639000   
   384       C          3.64601000     30.81988000     10.69330000   
   385       H          3.65452000     29.89229000     10.71018000   
   386       C         18.06201000     40.23181000     11.72961000   
   387       H         17.73953000     39.85328000     12.51280000   
   388       C         19.26109000     40.95711000     11.73042000   
   389       H         19.70073000     41.10579000     12.53400000   
   390       C         21.18440000     43.54582000     10.24470000   
   391       H         20.39780000     44.00720000     10.07121000   
   392       C         22.37471000     44.19638000     10.16430000   
   393       H         48.42729000      0.00900000      9.82150000   
   394      Zn         -1.54040000     16.07050000     10.24098000   
   395      Zn          0.31728000     13.83252000      9.01090000   
   396      Zn         -0.67837000     31.72768000     30.81028000   
   397       O         -0.74548000     14.61589000      7.55510000   
   398       O         -2.07180000     16.08320000      8.33841000   
   399       O         40.02419000     10.53680000     32.50762000   
   400       O         40.82478000      8.93749000     33.85242000   
   401       O         -0.87080000     28.31722000     34.23699000   
   402       O         -1.73358000     27.55178000     32.43729000   
   403       O         -1.09660000     17.95882000     10.64628000   
   404       O          0.24271000     11.97812000      9.49571000   
   405       C         -4.61961000     17.61638000     40.32381000   
   406       C         -5.42409000     16.71668000     39.63439000   
   407       H         -5.71719000     15.93948000     40.05209000   
   408       C         -5.79260000     16.97929000     38.32048000   
   409       C         -5.35669000     18.14169000     37.69552000   
   410       H         -5.60280000     18.31830000     36.81492000   
   411       C         -4.55219000     19.04139000     38.38480000   
   412       C         -4.18358000     18.77869000     39.69880000   
   413       H         -3.64672000     19.38149000     40.16212000   
   414       C         -3.32730000     16.72430000      2.02740000   
   415       C         -3.51671000     15.68719000      1.12100000   
   416       H         -3.36841000     14.80872000      1.38370000   
   417       C         -3.92433000     15.96611000     42.13832000   
   418       H         -4.05250000     15.27280000     41.53320000   
   419       C         -4.14298000     17.28119000     41.74469000   
   420       C         -3.95367000     18.31739000      0.33470000   
   421       H         -4.10193000     19.19682000      0.07190000   
   422       C         -3.54613000     18.03942000      1.63420000   
   423       H         -3.41782000     18.73282000      2.23850000   
   424       C         -2.04551000     15.81248000      6.05330000   
   425       C         -1.55098000     15.10471000      4.96409000   
   426       H         -0.92079000     14.43478000      5.09480000   
   427       C         -1.99741000     15.40210000      3.68150000   
   428       H         -1.66468000     14.93040000      2.95370000   
   429       C         -2.93771000     16.40722000      3.48850000   
   430       C         -3.43218000     17.11490000      4.57770000   
   431       H         -4.06289000     17.78672000      4.44741000   
   432       C         -2.98632000     16.81760000      5.86030000   
   433       H         -3.31900000     17.29110000      6.58860000   
   434       C         -1.41011000     15.59668000      7.41381000   
   435       C         -6.64971000     16.05892000     37.54910000   
   436       C         -6.74101000     14.76911000     38.05901000   
   437       H         -6.30511000     14.55192000     38.85032000   
   438       C         -7.48390000     13.80680000     37.38530000   
   439       H         44.47618000     12.94350000     37.72471000   
   440       C         -8.13519000     14.13379000     36.20180000   
   441       C         -8.04389000     15.42368000     35.69190000   
   442       H         -8.47959000     15.64218000     34.89801000   
   443       C         -7.30080000     16.38640000     36.36548000   
   444       H         -7.23890000     17.25060000     36.02361000   
   445       C         43.02659000     12.99360000     35.60811000   
   446       C         42.91690000     11.65280000     35.95722000   
   447       H         43.36551000     11.32621000     36.70490000   
   448       C         42.13548000     10.79680000     35.19041000   
   449       H         42.06239000      9.89801000     35.42268000   
   450       C         41.46361000     11.28111000     34.07411000   
   451       C         41.57362000     12.62228000     33.72501000   
   452       H         41.12342000     12.94810000     32.97690000   
   453       C         42.35501000     13.47832000     34.49181000   
   454       H         42.42649000     14.37621000     34.25899000   
   455       C         40.71190000     10.13678000     33.42748000   
   456       C         -4.11731000     20.37759000     37.72048000   
   457       C         -4.96032000     21.04401000     36.84031000   
   458       H         -5.81354000     20.71062000     36.67100000   
   459       C         -4.53372000     22.20631000     36.20980000   
   460       H         -5.09818000     22.65229000     35.62161000   
   461       C         -3.25918000     22.70189000     36.45951000   
   462       C         -2.41642000     22.03512000     37.34391000   
   463       H         -1.56331000     22.36850000     37.51309000   
   464       C         -2.84823000     20.87281000     37.97442000   
   465       H         -2.28119000     20.43130000     38.56261000   
   466       C         -2.72959000     23.81378000     35.75829000   
   467       C         -3.58980000     24.52070000     34.92551000   
   468       H         -4.45311000     24.21110000     34.77952000   
   469       C         -3.15719000     25.69071000     34.31239000   
   470       H         -3.73263000     26.16191000     33.75552000   
   471       C         -1.86522000     26.15430000     34.53201000   
   472       C         -1.00559000     25.44738000     35.36479000   
   473       H         -0.14309000     25.75640000     35.51159000   
   474       C         -1.43789000     24.27692000     35.97749000   
   475       H         -0.86359000     23.80572000     36.53559000   
   476       C         -1.42023000     27.31070000     33.66661000   
   477       C         -1.14082000     20.68891000     10.68729000   
   478       H         -1.94562000     20.22852000     10.76519000   
   479       C         -1.16451000     22.07071000     10.68940000   
   480       H         -1.98201000     22.50821000     10.76519000   
   481       C         -1.13101000     25.11670000     10.79058000   
   482       H         -1.91441000     24.67068000     11.00639000   
   483       C         -1.14321000     26.48489000     10.69330000   
   484       H         -1.95082000     26.94132000     10.71018000   
   485       C         -0.20030000      9.29430000     11.72961000   
   486       H         -0.36678000      9.76280000     12.51280000   
   487       C         -0.17171000      7.89322000     11.73042000   
   488       H         -0.26270000      7.43810000     12.53400000   
   489       C          1.10860000      4.93319000     10.24470000   
   490       H          1.90140000      5.38380000     10.07121000   
   491       C          1.07690000      3.57720000     10.16430000   
   492       H          1.80520000      3.10860000      9.82150000   
   493      Zn        -11.32342000     38.35110000     10.24098000   
   494      Zn        -14.19041000     37.86129000      9.01090000   
   495      Zn          1.80522000     29.77601000     30.81028000   
   496       O        -12.98050000     38.38998000      7.55510000   
   497       O        -11.04659000     38.80501000      8.33841000   
   498       O         15.12410000      5.12200000     32.50762000   
   499       O         13.33873000      5.22828000     33.85242000   
   500       O         -1.05212000     31.64790000     34.23699000   
   501       O         -1.28362000     32.77790000     32.43729000   
   502       O         -9.90988000     37.02269000     10.64628000   
   503       O        -15.75900000     38.85321000      9.49571000   
   504       C         -8.44502000     40.24479000     40.32381000   
   505       C         -8.82189000     41.39142000     39.63439000   
   506       H         -9.34843000     42.03391000     40.05209000   
   507       C         -8.41008000     41.57929000     38.32048000   
   508       C         -7.62151000     40.62062000     37.69552000   
   509       H         -7.34553000     40.74541000     36.81492000   
   510       C         -7.24458000     39.47399000     38.38480000   
   511       C         -7.65629000     39.28612000     39.69880000   
   512       H         -7.40268000     38.51978000     40.16212000   
   513       C         -9.86361000     39.57180000      2.02740000   
   514       C        -10.66711000     40.25430000      1.12100000   
   515       H        -11.50209000     40.56520000      1.38370000   
   516       C        -10.22178000     40.46780000     42.13832000   
   517       H        -10.75823000     40.92562000     41.53320000   
   518       C         -8.97351000     39.99970000     41.74469000   
   519       C         -8.17081000     39.31770000      0.33470000   
   520       H         -7.33508000     39.00630000      0.07190000   
   521       C         -8.61539000     39.10370000      1.63420000   
   522       H         -8.07899000     38.64588000      2.23850000   
   523       C        -11.29418000     38.91759000      6.05330000   
   524       C        -12.15439000     38.84330000      4.96409000   
   525       H        -13.04972000     38.63241000      5.09480000   
   526       C        -11.67371000     39.08109000      3.68150000   
   527       H        -12.24861000     39.02892000      2.95370000   
   528       C        -10.33308000     39.39289000      3.48850000   
   529       C         -9.47287000     39.46719000      4.57770000   
   530       H         -8.57580000     39.67758000      4.44741000   
   531       C         -9.95342000     39.22980000      5.86030000   
   532       H         -9.37699000     39.28121000      6.58860000   
   533       C        -11.79880000     38.47518000      7.41381000   
   534       C         -8.77869000     42.78169000     37.54910000   
   535       C         -9.85008000     43.50568000     38.05901000   
   536       H        -10.25611000     43.23681000     38.85032000   
   537       C        -10.31209000     44.63019000     37.38530000   
   538       H         14.98232000      0.06310000     37.72471000   
   539       C         -9.70312000     45.03070000     36.20180000   
   540       C         -8.63178000     44.30680000     35.69190000   
   541       H         -8.22473000     44.57482000     34.89801000   
   542       C         -8.16948000     43.18180000     36.36548000   
   543       H         -7.45218000     42.69609000     36.02361000   
   544       C         15.75041000      1.29350000     35.60811000   
   545       C         14.64419000      2.05890000     35.95722000   
   546       H         14.13700000      1.83360000     36.70490000   
   547       C         14.29360000      3.16360000     35.19041000   
   548       H         13.55172000      3.67630000     35.42268000   
   549       C         15.04891000      3.50330000     34.07411000   
   550       C         16.15542000      2.73740000     33.72501000   
   551       H         16.66262000      2.96440000     32.97690000   
   552       C         16.50611000      1.63270000     34.49181000   
   553       H         17.24790000      1.12180000     34.25899000   
   554       C         14.43379000      4.72640000     33.42748000   
   555       C         -6.30478000     38.42918000     37.72048000   
   556       C         -5.30622000     38.82609000     36.84031000   
   557       H         -5.16839000     39.73169000     36.67100000   
   558       C         -4.51288000     37.87549000     36.20980000   
   559       H         -3.84440000     38.14129000     35.62161000   
   560       C         -4.72102000     36.52400000     36.45951000   
   561       C         -5.71982000     36.12750000     37.34391000   
   562       H         -5.85770000     35.22190000     37.51309000   
   563       C         -6.51061000     37.08261000     37.97442000   
   564       H         -7.17638000     36.81229000     38.56261000   
   565       C         -4.02291000     35.50938000     35.75829000   
   566       C         -2.98060000     35.90088000     34.92551000   
   567       H         -2.81699000     36.80328000     34.77952000   
   568       C         -2.18360000     34.94131000     34.31239000   
   569       H         -1.48780000     35.20388000     33.75552000   
   570       C         -2.42807000     33.59060000     34.53201000   
   571       C         -3.47010000     33.19950000     35.36479000   
   572       H         -3.63371000     32.29800000     35.51159000   
   573       C         -4.26760000     34.15921000     35.97749000   
   574       H         -4.96290000     33.89741000     36.53559000   
   575       C         -1.64907000     32.62688000     33.66661000   
   576       C         -7.52342000     35.69590000     10.68729000   
   577       H         -7.51981000     36.62312000     10.76519000   
   578       C         -6.31500000     35.02552000     10.68940000   
   579       H         -5.52729000     35.51479000     10.76519000   
   580       C         -3.69380000     33.47351000     10.79058000   
   581       H         -3.68839000     34.37501000     11.00639000   
   582       C         -2.50280000     32.79988000     10.69330000   
   583       H         -1.70367000     33.27118000     10.71018000   
   584       C        -17.86183000     40.57872000     11.72961000   
   585       H        -17.37272000     40.48861000     12.51280000   
   586       C        -19.08950000     41.25450000     11.73042000   
   587       H        -19.43801000     41.56081000     12.53400000   
   588       C        -22.29299000     41.62569000     10.24470000   
   589       H        -22.29919000     40.71378000     10.07121000   
   590       C        -23.45151000     42.33121000     10.16430000   
   591       H         27.80058000     41.93470000      9.82150000   
   592      Zn         24.47058000     28.98192000     31.39898000   
   593      Zn         26.32831000     31.21990000     30.16890000   
   594      Zn         25.33258000     13.32469000      9.65228000   
   595       O         25.26552000     30.43648000     28.71310000   
   596       O         23.93920000     28.96908000     29.49641000   
   597       O         14.01319000     34.51548000     11.34962000   
   598       O         14.81378000     36.11488000     12.69442000   
   599       O         25.14018000     16.73520000     13.07899000   
   600       O         24.27742000     17.50059000     11.27929000   
   601       O         24.91438000     27.09360000     31.80428000   
   602       O         26.25368000     33.07430000     30.65371000   
   603       C         21.39139000     27.43599000     19.16581000   
   604       C         20.58693000     28.33569000     18.47639000   
   605       H         20.29381000     29.11280000     18.89409000   
   606       C         20.21832000     28.07299000     17.16248000   
   607       C         20.65429000     26.91068000     16.53752000   
   608       H         20.40823000     26.73408000     15.65692000   
   609       C         21.45881000     26.01099000     17.22680000   
   610       C         21.82742000     26.27360000     18.54080000   
   611       H         22.36428000     25.67080000     19.00412000   
   612       C         22.68370000     28.32799000     23.18540000   
   613       C         22.49429000     29.36509000     22.27899000   
   614       H         22.64260000     30.24370000     22.54169000   
   615       C         22.08669000     29.08631000     20.98032000   
   616       H         21.95849000     29.77962000     20.37520000   
   617       C         21.86802000     27.77118000     20.58669000   
   618       C         22.05733000     26.73498000     21.49272000   
   619       H         21.90909000     25.85560000     21.22989000   
   620       C         22.46489000     27.01300000     22.79220000   
   621       H         22.59321000     26.31960000     23.39652000   
   622       C         23.96549000     29.23989000     27.21130000   
   623       C         24.45999000     29.94771000     26.12209000   
   624       H         25.09021000     30.61759000     26.25280000   
   625       C         24.01356000     29.65032000     24.83949000   
   626       H         24.34630000     30.12202000     24.11170000   
   627       C         23.07332000     28.64520000     24.64649000   
   628       C         22.57882000     27.93738000     25.73570000   
   629       H         21.94808000     27.26570000     25.60541000   
   630       C         23.02470000     28.23482000     27.01830000   
   631       H         22.69197000     27.76132000     27.74660000   
   632       C         24.60089000     29.45569000     28.57181000   
   633       C         19.36131000     28.99350000     16.39110000   
   634       C         19.26999000     30.28330000     16.90101000   
   635       H         19.70591000     30.50050000     17.69232000   
   636       C         18.52709000     31.24558000     16.22730000   
   637       H         18.46523000     32.10878000     16.56671000   
   638       C         17.87583000     30.91850000     15.04380000   
   639       C         17.96710000     29.62869000     14.53390000   
   640       H         17.53141000     29.41019000     13.74001000   
   641       C         18.71021000     28.66588000     15.20748000   
   642       H         18.77209000     27.80182000     14.86561000   
   643       C         17.01556000     32.05882000     14.45011000   
   644       C         16.90577000     33.39962000     14.79922000   
   645       H         17.35449000     33.72621000     15.54690000   
   646       C         16.12451000     34.25562000     14.03241000   
   647       H         16.05141000     35.15441000     14.26468000   
   648       C         15.45259000     33.77130000     12.91611000   
   649       C         15.56262000     32.43001000     12.56701000   
   650       H         15.11239000     32.10432000     11.81890000   
   651       C         16.34399000     31.57410000     13.33381000   
   652       H         16.41552000     30.67621000     13.10099000   
   653       C         14.70090000     34.91559000     12.26948000   
   654       C         21.89369000     24.67469000     16.56248000   
   655       C         21.05070000     24.00841000     15.68231000   
   656       H         20.19749000     24.34180000     15.51300000   
   657       C         21.47731000     22.84610000     15.05180000   
   658       H         20.91282000     22.40000000     14.46361000   
   659       C         22.75182000     22.35048000     15.30151000   
   660       C         23.59460000     23.01730000     16.18591000   
   661       H         24.44771000     22.68392000     16.35509000   
   662       C         23.16280000     24.17961000     16.81642000   
   663       H         23.72978000     24.62112000     17.40461000   
   664       C         23.28141000     21.23859000     14.60029000   
   665       C         22.42117000     20.53172000     13.76751000   
   666       H         21.55789000     20.84118000     13.62152000   
   667       C         22.85378000     19.36171000     13.15439000   
   668       H         22.27840000     18.89051000     12.59752000   
   669       C         24.14580000     18.89812000     13.37401000   
   670       C         25.00541000     19.60499000     14.20679000   
   671       H         25.86791000     19.29589000     14.35359000   
   672       C         24.57309000     20.77541000     14.81949000   
   673       H         25.14738000     21.24670000     15.37759000   
   674       C         24.59083000     17.74158000     12.50861000   
   675       C         24.87024000     24.36338000     31.84529000   
   676       H         24.06540000     24.82390000     31.92319000   
   677       C         24.84651000     22.98171000     31.84740000   
   678       H         24.02901000     22.54421000     31.92319000   
   679       C         24.87996000     19.93572000     31.94858000   
   680       H         24.09659000     20.38169000     32.16439000   
   681       C         24.86779000     18.56739000     31.85130000   
   682       H         24.06020000     18.11110000     31.86818000   
   683       C         25.81069000     35.75811000     32.88761000   
   684       H         25.64422000     35.28948000     33.67080000   
   685       C         25.83928000     37.15920000     32.88842000   
   686       H         25.74831000     37.61418000     33.69200000   
   687       C         27.11961000     40.11909000     31.40270000   
   688       H         27.91240000     39.66861000     31.22921000   
   689       C         27.08791000     41.47522000     31.32230000   
   690       H        -24.20580000     41.94380000     30.97950000   
   691      Zn         14.68763000      6.70118000     31.39898000   
   692      Zn         11.82059000      7.19108000     30.16890000   
   693      Zn         27.81619000     15.27640000      9.65228000   
   694       O         13.03050000      6.66230000     28.71310000   
   695       O         14.96439000      6.24741000     29.49641000   
   696       O        -10.88693000     39.93041000     11.34962000   
   697       O        -12.67233000     39.82400000     12.69442000   
   698       O         24.95893000     13.40439000     13.07899000   
   699       O         24.72741000     12.27452000     11.27929000   
   700       O         16.10112000      8.02968000     31.80428000   
   701       O         10.25198000      6.19921000     30.65371000   
   702       C         17.56598000      4.80749000     19.16581000   
   703       C         17.18908000      3.66100000     18.47639000   
   704       H         16.66260000      3.01850000     18.89409000   
   705       C         17.60091000      3.47310000     17.16248000   
   706       C         18.38952000      4.43180000     16.53752000   
   707       H         18.66550000      4.30700000     15.65692000   
   708       C         18.76642000      5.57838000     17.22680000   
   709       C         18.35469000      5.76630000     18.54080000   
   710       H         18.60832000      6.53259000     19.00412000   
   711       C         16.14737000      5.48062000     23.18540000   
   712       C         15.34389000      4.79808000     22.27899000   
   713       H         14.50889000      4.48720000     22.54169000   
   714       C         15.78922000      4.58448000     20.98032000   
   715       H         15.25280000      4.12680000     20.37520000   
   716       C         17.03749000      5.05258000     20.58669000   
   717       C         17.84016000      5.73472000     21.49272000   
   718       H         18.67592000      6.04598000     21.22989000   
   719       C         17.39558000      5.94872000     22.79220000   
   720       H         17.93201000      6.40640000     23.39652000   
   721       C         14.71682000      6.13478000     27.21130000   
   722       C         13.85658000      6.20912000     26.12209000   
   723       H         12.96131000      6.42001000     26.25280000   
   724       C         14.33729000      5.97120000     24.83949000   
   725       H         13.76242000      6.02350000     24.11170000   
   726       C         15.67792000      5.65948000     24.64649000   
   727       C         16.53808000      5.58510000     25.73570000   
   728       H         17.43520000      5.37470000     25.60541000   
   729       C         16.05760000      5.82261000     27.01830000   
   730       H         16.63398000      5.77121000     27.74660000   
   731       C         14.21220000      6.57720000     28.57181000   
   732       C         17.23231000      2.27060000     16.39110000   
   733       C         16.16092000      1.54660000     16.90101000   
   734       H         15.75492000      1.81560000     17.69232000   
   735       C         15.69891000      0.42210000     16.22730000   
   736       H        -11.02872000     44.98930000     16.56671000   
   737       C         16.30792000      0.02160000     15.04380000   
   738       C         17.37921000      0.74560000     14.53390000   
   739       H         17.78630000      0.47760000     13.74001000   
   740       C         17.84150000      1.87060000     15.20748000   
   741       H         18.55882000      2.35620000     14.86561000   
   742       C        -10.26061000     43.75892000     14.45011000   
   743       C        -11.36681000     42.99348000     14.79922000   
   744       H        -11.87400000     43.21870000     15.54690000   
   745       C        -11.71738000     41.88880000     14.03241000   
   746       H        -12.45932000     41.37610000     14.26468000   
   747       C        -10.96208000     41.54910000     12.91611000   
   748       C         -9.85562000     42.31499000     12.56701000   
   749       H         -9.34838000     42.08788000     11.81890000   
   750       C         -9.50491000     43.41972000     13.33381000   
   751       H         -8.76313000     43.93061000     13.10099000   
   752       C        -11.57721000     40.32588000     12.26948000   
   753       C         19.70622000      6.62310000     16.56248000   
   754       C         20.70478000      6.22619000     15.68231000   
   755       H         20.84261000      5.32069000     15.51300000   
   756       C         21.49812000      7.17680000     15.05180000   
   757       H         22.16660000      6.91099000     14.46361000   
   758       C         21.29000000      8.52841000     15.30151000   
   759       C         20.29121000      8.92492000     16.18591000   
   760       H         20.15330000      9.83038000     16.35509000   
   761       C         19.50037000      7.96981000     16.81642000   
   762       H         18.83462000      8.24008000     17.40461000   
   763       C         21.98809000      9.54299000     14.60029000   
   764       C         23.03040000      9.15149000     13.76751000   
   765       H         23.19401000      8.24909000     13.62152000   
   766       C         23.82738000     10.11110000     13.15439000   
   767       H         24.52320000      9.84840000     12.59752000   
   768       C         23.58290000     11.46182000     13.37401000   
   769       C         22.54090000     11.85278000     14.20679000   
   770       H         22.37729000     12.75428000     14.35359000   
   771       C         21.74338000     10.89321000     14.81949000   
   772       H         21.04808000     11.15501000     15.37759000   
   773       C         24.36188000     12.42540000     12.50861000   
   774       C         18.48760000      9.35652000     31.84529000   
   775       H         18.49122000      8.42930000     31.92319000   
   776       C         19.69602000     10.02690000     31.84740000   
   777       H         20.48371000      9.53759000     31.92319000   
   778       C         22.31718000     11.57891000     31.94858000   
   779       H         22.32259000     10.67741000     32.16439000   
   780       C         23.50820000     12.25240000     31.85130000   
   781       H         24.30728000     11.78120000     31.86818000   
   782       C          8.14919000      4.47370000     32.88761000   
   783       H          8.63831000      4.56381000     33.67080000   
   784       C          6.92148000      3.79790000     32.88842000   
   785       H          6.57301000      3.49160000     33.69200000   
   786       C          3.71800000      3.42670000     31.40270000   
   787       H          3.71180000      4.33850000     31.22921000   
   788       C          2.55950000      2.72120000     31.32230000   
   789       H          1.78960000      3.11760000     30.97950000   
   790      Zn         38.87479000      9.36918000     31.39898000   
   791      Zn         39.88399000      6.64140000     30.16890000   
   792      Zn         24.88423000     16.45128000      9.65228000   
   793       O         39.73698000      7.95350000     28.71310000   
   794       O         39.12941000      9.83579000     29.49641000   
   795       O         -3.12629000     15.65890000     11.34962000   
   796       O         -2.14149000     14.16582000     12.69442000   
   797       O         27.93399000     14.91279000     13.07899000   
   798       O         29.02830000     15.27730000     11.27929000   
   799       O         37.01761000      9.92909000     31.80428000   
   800       O         41.52732000      5.77891000     30.65371000   
   801       C         39.07552000     12.80880000     19.16581000   
   802       C         40.25699000     13.05568000     18.47639000   
   803       H         41.07657000     12.92102000     18.89409000   
   804       C         40.21381000     13.50630000     17.16248000   
   805       C         38.98919000     13.70989000     16.53752000   
   806       H         38.95933000     14.01129000     15.65692000   
   807       C         37.80782000     13.46300000     17.22680000   
   808       C         37.85087000     13.01252000     18.54080000   
   809       H         37.06050000     12.84889000     19.00412000   
   810       C         39.20201000     11.24372000     23.18540000   
   811       C         40.19477000     10.88920000     22.27899000   
   812       H         40.88149000     10.32150000     22.54169000   
   813       C         40.15713000     11.38158000     20.98032000   
   814       H         40.82169000     11.14600000     20.37520000   
   815       C         39.12759000     12.22861000     20.58669000   
   816       C         38.13548000     12.58272000     21.49272000   
   817       H         37.44798000     13.15079000     21.22989000   
   818       C         38.17239000     12.09071000     22.79220000   
   819       H         37.50789000     12.32628000     23.39652000   
   820       C         39.35069000      9.67770000     27.21130000   
   821       C         39.71651000      8.89559000     26.12209000   
   822       H         39.98151000      8.01482000     26.25280000   
   823       C         39.68207000      9.43081000     24.83949000   
   824       H         39.92431000      8.90690000     24.11170000   
   825       C         39.28181000     10.74769000     24.64649000   
   826       C         38.91610000     11.52980000     25.73570000   
   827       H         38.64972000     12.41188000     25.60541000   
   828       C         38.95072000     10.99499000     27.01830000   
   829       H         38.70702000     11.51989000     27.74660000   
   830       C         39.21991000      9.01949000     28.57181000   
   831       C         41.43942000     13.78828000     16.39110000   
   832       C         42.60206000     13.22242000     16.90101000   
   833       H         42.57220000     12.73631000     17.69232000   
   834       C         43.80689000     13.38461000     16.22730000   
   835       H         -7.43651000     13.00662000     16.56671000   
   836       C         43.84929000     14.11221000     15.04380000   
   837       C         42.68668000     14.67811000     14.53390000   
   838       H         42.71529000     15.16458000     13.74001000   
   839       C         41.48128000     14.51592000     15.20748000   
   840       H         40.70201000     14.89431000     14.86561000   
   841       C         -6.75510000     14.28701000     14.45011000   
   842       C         -5.53900000     13.71169000     14.79922000   
   843       H         -5.48050000     13.15980000     15.54690000   
   844       C         -4.40699000     13.96038000     14.03241000   
   845       H         -3.59209000     13.57428000     14.26468000   
   846       C         -4.49049000     14.78439000     12.91611000   
   847       C         -5.70710000     15.35971000     12.56701000   
   848       H         -5.76400000     15.91250000     11.81890000   
   849       C         -6.83911000     15.11102000     13.33381000   
   850       H         -7.65241000     15.49802000     13.10099000   
   851       C         -3.12369000     14.86318000     12.26948000   
   852       C         36.43309000     13.75449000     16.56248000   
   853       C         36.27752000     14.81768000     15.68231000   
   854       H         36.99279000     15.38989000     15.51300000   
   855       C         35.05760000     15.02952000     15.05180000   
   856       H         34.95358000     15.74130000     14.46361000   
   857       C         33.99120000     14.17352000     15.30151000   
   858       C         34.14721000     13.11020000     16.18591000   
   859       H         33.43191000     12.53812000     16.35509000   
   860       C         35.36981000     12.90300000     16.81642000   
   861       H         35.46857000     12.19122000     17.40461000   
   862       C         32.76351000     14.27079000     14.60029000   
   863       C         32.58140000     15.36921000     13.76751000   
   864       H         33.28110000     15.96210000     13.62152000   
   865       C         31.35181000     15.57961000     13.15439000   
   866       H         31.23138000     16.31351000     12.59752000   
   867       C         30.30443000     14.69248000     13.37401000   
   868       C         30.48669000     13.59460000     14.20679000   
   869       H         29.78780000     13.00212000     14.35359000   
   870       C         31.71651000     13.38371000     14.81949000   
   871       H         31.83752000     12.65071000     15.37759000   
   872       C         29.08030000     14.88530000     12.50861000   
   873       C         34.67529000     11.33252000     31.84529000   
   874       H         35.47640000     11.79922000     31.92319000   
   875       C         33.49049000     12.04390000     31.84740000   
   876       H         33.52043000     12.97058000     31.92319000   
   877       C         30.83583000     13.53779000     31.94858000   
   878       H         31.61380000     13.99331000     32.16439000   
   879       C         29.65701000     14.23250000     31.85130000   
   880       H         29.66552000     15.16008000     31.86818000   
   881       C         44.07299000      4.82060000     32.88761000   
   882       H         43.75048000      5.19900000     33.67080000   
   883       C         45.27212000      4.09530000     32.88842000   
   884       H         45.71172000      3.94660000     33.69200000   
   885       C         47.19542000      1.50660000     31.40270000   
   886       H         46.40878000      1.04520000     31.22921000   
   887       C         48.38571000      0.85600000     31.32230000   
   888       H         22.41631000     45.04341000     30.97950000   
   889      Zn         13.14721000      9.36918000     32.07502000   
   890      Zn         12.13801000      6.64140000     33.30510000   
   891       O         12.28502000      7.95350000     34.76090000   
   892       O         12.89259000      9.83579000     33.97759000   
   893       O          3.12629000     15.65890000      9.80838000   
   894       O          2.14149000     14.16582000      8.46358000   
   895       O         23.64660000     13.75449000      8.65790000   
   896       O         23.32203000     15.89898000      8.87790000   
   897       O         15.00439000      9.92909000     31.66972000   
   898       O         10.49468000      5.77891000     32.82029000   
   899       C         12.94648000     12.80880000      1.99220000   
   900       C         11.76501000     13.05568000      2.68160000   
   901       H         10.94538000     12.92102000      2.26390000   
   902       C         11.80819000     13.50630000      3.99550000   
   903       C         13.03281000     13.70989000      4.62048000   
   904       H         13.06272000     14.01129000      5.50108000   
   905       C         14.21418000     13.46300000      3.93120000   
   906       C         14.17108000     13.01252000      2.61720000   
   907       H         14.96150000     12.84889000      2.15390000   
   908       C         12.81999000     11.24372000     40.28860000   
   909       C         11.82718000     10.88920000     41.19501000   
   910       H         11.14051000     10.32150000     40.93231000   
   911       C         11.86492000     11.38158000      0.17771000   
   912       H         11.20031000     11.14600000      0.78280000   
   913       C         12.89441000     12.22861000      0.57130000   
   914       C         13.88647000     12.58272000     41.98128000   
   915       H         14.57402000     13.15079000     42.24411000   
   916       C         13.84961000     12.09071000     40.68180000   
   917       H         14.51411000     12.32628000     40.07748000   
   918       C         12.67131000      9.67770000     36.26270000   
   919       C         12.30549000      8.89559000     37.35191000   
   920       H         12.04049000      8.01482000     37.22120000   
   921       C         12.33988000      9.43081000     38.63451000   
   922       H         12.09769000      8.90690000     39.36230000   
   923       C         12.74019000     10.74769000     38.82751000   
   924       C         13.10590000     11.52980000     37.73830000   
   925       H         13.37233000     12.41188000     37.86859000   
   926       C         13.07128000     10.99499000     36.45570000   
   927       H         13.31498000     11.51989000     35.72740000   
   928       C         12.80209000      9.01949000     34.90219000   
   929       C         10.58263000     13.78828000      4.76690000   
   930       C          9.41988000     13.22242000      4.25699000   
   931       H          9.44980000     12.73631000      3.46570000   
   932       C          8.21511000     13.38461000      4.93070000   
   933       H          7.43649000     13.00662000      4.59129000   
   934       C          8.17271000     14.11221000      6.11420000   
   935       C          9.33527000     14.67811000      6.62410000   
   936       H          9.30671000     15.16458000      7.41799000   
   937       C         10.54067000     14.51592000      5.95052000   
   938       H         11.31999000     14.89431000      6.29239000   
   939       C          6.75511000     14.28701000      6.70789000   
   940       C          5.53899000     13.71169000      6.35878000   
   941       H          5.48052000     13.15980000      5.61110000   
   942       C          4.40699000     13.96038000      7.12559000   
   943       H          3.59212000     13.57428000      6.89332000   
   944       C          4.49049000     14.78439000      8.24189000   
   945       C          5.70707000     15.35971000      8.59099000   
   946       H          5.76399000     15.91250000      9.33910000   
   947       C          6.83907000     15.11102000      7.82419000   
   948       H          7.65238000     15.49802000      8.05701000   
   949       C          3.12369000     14.86318000      8.88852000   
   950       C         15.58891000     13.75449000      4.59552000   
   951       C         15.74454000     14.81768000      5.47569000   
   952       H         15.02921000     15.38989000      5.64500000   
   953       C         16.96440000     15.02952000      6.10620000   
   954       H         17.06842000     15.74130000      6.69439000   
   955       C         18.03080000     14.17352000      5.85649000   
   956       C         17.87479000     13.11020000      4.97209000   
   957       H         18.59009000     12.53812000      4.80291000   
   958       C         16.65219000     12.90300000      4.34158000   
   959       H         16.55337000     12.19122000      3.75340000   
   960       C         19.25849000     14.27079000      6.55771000   
   961       C         19.44060000     15.36921000      7.39049000   
   962       H         18.74090000     15.96210000      7.53648000   
   963       C         20.67019000     15.57961000      8.00361000   
   964       H         20.79062000     16.31351000      8.56048000   
   965       C         21.71762000     14.69248000      7.78399000   
   966       C         21.53531000     13.59460000      6.95121000   
   967       H         22.23420000     13.00212000      6.80441000   
   968       C         20.30549000     13.38371000      6.33851000   
   969       H         20.18448000     12.65071000      5.78041000   
   970       C         22.94170000     14.88530000      8.64939000   
   971       C         17.34671000     11.33252000     31.62871000   
   972       H         16.54560000     11.79922000     31.55081000   
   973       C         18.53151000     12.04390000     31.62660000   
   974       H         18.50162000     12.97058000     31.55081000   
   975       C         21.18622000     13.53779000     31.52542000   
   976       H         20.40820000     13.99331000     31.30961000   
   977       C         22.36499000     14.23250000     31.62270000   
   978       H         22.35653000     15.16008000     31.60582000   
   979       C          7.94901000      4.82060000     30.58639000   
   980       H          8.27152000      5.19900000     29.80320000   
   981       C          6.74988000      4.09530000     30.58558000   
   982       H          6.31031000      3.94660000     29.78200000   
   983       C          4.82662000      1.50660000     32.07130000   
   984       H          5.61318000      1.04520000     32.24479000   
   985       C          3.63630000      0.85600000     32.15170000   
   986       H        -22.41631000     45.04341000     32.49450000   
   987      Zn         27.55137000     28.98192000     32.07502000   
   988      Zn         25.69369000     31.21990000     33.30510000   
   989       O         26.75653000     30.43648000     34.76090000   
   990       O         28.08280000     28.96908000     33.97759000   
   991       O        -14.01319000     34.51548000      9.80838000   
   992       O        -14.81378000     36.11488000      8.46358000   
   993       O         26.09941000     17.69662000      8.65790000   
   994       O         28.11891000     16.90550000      8.87790000   
   995       O         27.10762000     27.09360000     31.66972000   
   996       O         25.76832000     33.07430000     32.82029000   
   997       C         30.63061000     27.43599000      1.99220000   
   998       C         31.43513000     28.33569000      2.68160000   
   999       H         31.72819000     29.11280000      2.26390000   
  1000       C         31.80362000     28.07299000      3.99550000   
  1001       C         31.36771000     26.91068000      4.62048000   
  1002       H         31.61382000     26.73408000      5.50108000   
  1003       C         30.56319000     26.01099000      3.93120000   
  1004       C         30.19458000     26.27360000      2.61720000   
  1005       H         29.65772000     25.67080000      2.15390000   
  1006       C         29.33830000     28.32799000     40.28860000   
  1007       C         29.52771000     29.36509000     41.19501000   
  1008       H         29.37940000     30.24370000     40.93231000   
  1009       C         29.93531000     29.08631000      0.17770000   
  1010       H         30.06351000     29.77962000      0.78280000   
  1011       C         30.15403000     27.77118000      0.57130000   
  1012       C         29.96472000     26.73498000     41.98128000   
  1013       H         30.11291000     25.85560000     42.24411000   
  1014       C         29.55711000     27.01300000     40.68180000   
  1015       H         29.42879000     26.31960000     40.07748000   
  1016       C         28.05651000     29.23989000     36.26270000   
  1017       C         27.56201000     29.94771000     37.35191000   
  1018       H         26.93179000     30.61759000     37.22120000   
  1019       C         28.00838000     29.65032000     38.63451000   
  1020       H         27.67570000     30.12202000     39.36230000   
  1021       C         28.94868000     28.64520000     38.82751000   
  1022       C         29.44323000     27.93738000     37.73830000   
  1023       H         30.07392000     27.26570000     37.86859000   
  1024       C         28.99730000     28.23482000     36.45570000   
  1025       H         29.32998000     27.76132000     35.72740000   
  1026       C         27.42111000     29.45569000     34.90219000   
  1027       C         32.66069000     28.99350000      4.76690000   
  1028       C         32.75201000     30.28330000      4.25699000   
  1029       H         32.31609000     30.50050000      3.46570000   
  1030       C         33.49491000     31.24558000      4.93070000   
  1031       H        -18.46519000     32.10878000      4.59129000   
  1032       C         34.14623000     30.91850000      6.11420000   
  1033       C         34.05490000     29.62869000      6.62410000   
  1034       H         34.49059000     29.41019000      7.41799000   
  1035       C         33.31179000     28.66588000      5.95052000   
  1036       H         33.24991000     27.80182000      6.29239000   
  1037       C        -17.01561000     32.05882000      6.70789000   
  1038       C        -16.90581000     33.39962000      6.35878000   
  1039       H        -17.35450000     33.72621000      5.61110000   
  1040       C        -16.12451000     34.25562000      7.12559000   
  1041       H        -16.05141000     35.15441000      6.89332000   
  1042       C        -15.45260000     33.77130000      8.24189000   
  1043       C        -15.56260000     32.43001000      8.59099000   
  1044       H        -15.11241000     32.10432000      9.33910000   
  1045       C        -16.34400000     31.57410000      7.82419000   
  1046       H        -16.41551000     30.67621000      8.05701000   
  1047       C        -14.70090000     34.91559000      8.88852000   
  1048       C         30.12831000     24.67469000      4.59552000   
  1049       C         30.97130000     24.00841000      5.47569000   
  1050       H         31.82451000     24.34180000      5.64500000   
  1051       C         30.54469000     22.84610000      6.10620000   
  1052       H         31.10918000     22.40000000      6.69439000   
  1053       C         29.27023000     22.35048000      5.85649000   
  1054       C         28.42740000     23.01730000      4.97209000   
  1055       H         27.57429000     22.68392000      4.80291000   
  1056       C         28.85920000     24.17961000      4.34158000   
  1057       H         28.29216000     24.62112000      3.75340000   
  1058       C         28.74059000     21.23859000      6.55771000   
  1059       C         29.60078000     20.53172000      7.39049000   
  1060       H         30.46411000     20.84118000      7.53648000   
  1061       C         29.16822000     19.36171000      8.00361000   
  1062       H         29.74360000     18.89051000      8.56048000   
  1063       C         27.87620000     18.89812000      7.78399000   
  1064       C         27.01659000     19.60499000      6.95121000   
  1065       H         26.15409000     19.29589000      6.80441000   
  1066       C         27.44891000     20.77541000      6.33851000   
  1067       H         26.87462000     21.24670000      5.78041000   
  1068       C         27.43123000     17.74158000      8.64939000   
  1069       C         27.15182000     24.36338000     31.62871000   
  1070       H         27.95660000     24.82390000     31.55081000   
  1071       C         27.17549000     22.98171000     31.62660000   
  1072       H         27.99299000     22.54421000     31.55081000   
  1073       C         27.14198000     19.93572000     31.52542000   
  1074       H         27.92541000     20.38169000     31.30961000   
  1075       C         27.15421000     18.56739000     31.62270000   
  1076       H         27.96180000     18.11110000     31.60582000   
  1077       C         26.21131000     35.75811000     30.58639000   
  1078       H         26.37783000     35.28948000     29.80320000   
  1079       C         26.18272000     37.15920000     30.58558000   
  1080       H         26.27369000     37.61418000     29.78200000   
  1081       C         24.90239000     40.11909000     32.07130000   
  1082       H         24.10960000     39.66861000     32.24479000   
  1083       C         24.93409000     41.47522000     32.15170000   
  1084       H         24.20581000     41.94380000     32.49450000   
  1085      Zn         37.33442000      6.70118000     32.07502000   
  1086      Zn         40.20141000      7.19108000     33.30510000   
  1087       O         38.99150000      6.66230000     34.76090000   
  1088       O         37.05761000      6.24741000     33.97759000   
  1089       O         10.88688000     39.93041000      9.80838000   
  1090       O         12.67233000     39.82400000      8.46358000   
  1091       O         28.28701000     13.60131000      8.65790000   
  1092       O         26.59211000     12.24789000      8.87790000   
  1093       O         35.92093000      8.02968000     31.66972000   
  1094       O         41.76997000      6.19921000     32.82029000   
  1095       C         34.45602000      4.80749000      1.99220000   
  1096       C         34.83292000      3.66100000      2.68160000   
  1097       H         35.35941000      3.01850000      2.26390000   
  1098       C         34.42108000      3.47310000      3.99550000   
  1099       C         33.63248000      4.43180000      4.62048000   
  1100       H         33.35651000      4.30700000      5.50108000   
  1101       C         33.25558000      5.57838000      3.93120000   
  1102       C         33.66731000      5.76630000      2.61720000   
  1103       H         33.41368000      6.53259000      2.15390000   
  1104       C         35.87458000      5.48062000     40.28860000   
[...]
  802  C   1.05455   1.06849   1.03897   1.00944
  803  H   0.85988
  804  C   1.06257   0.97039   0.96943   0.97280
  805  C   1.05609   0.98609   1.04211   1.08709
  806  H   0.86006
  807  C   1.07788   0.95999   0.96096   0.97143
  808  C   1.05532   1.06216   1.03749   1.01632
  809  H   0.85896
  810  C   1.07658   0.98578   0.98154   0.96019
  811  C   1.05623   1.04844   1.03900   0.99601
  812  H   0.86454
  813  C   1.05580   1.03902   1.00551   1.02558
  814  H   0.86432
  815  C   1.07335   0.98588   0.98443   0.96363
  816  C   1.05722   1.04382   1.03229   0.99272
  817  H   0.86256
  818  C   1.05651   1.04588   1.00169   1.03284
  819  H   0.86329
  820  C   1.08144   1.05192   0.99677   0.98694
  821  C   1.06123   0.96279   1.07375   0.97535
  822  H   0.85682
  823  C   1.05685   1.04115   1.02601   1.05361
  824  H   0.86197
  825  C   1.07884   0.95420   0.97824   0.95862
  826  C   1.05543   1.04150   1.08493   0.99035
  827  H   0.86018
  828  C   1.06118   0.95169   1.00862   1.03900
  829  H   0.85304
  830  C   1.07764   0.65267   0.72792   0.81589
  831  C   1.06242   0.97724   0.99223   0.98226
  832  C   1.05943   0.98633   1.02066   1.05917
  833  H   0.86367
  834  C   1.05897   1.05860   1.01950   1.00725
  835  H   0.86518
  836  C   1.07668   0.95572   0.98198   0.98331
  837  C   1.05528   0.98484   1.03296   1.06706
  838  H   0.86245
  839  C   1.05541   1.05162   1.01250   0.99620
  840  H   0.86352
  841  C   1.07824   0.95595   0.96388   0.97334
  842  C   1.05339   0.98766   1.05485   1.07231
  843  H   0.86284
  844  C   1.06680   1.05842   0.97430   0.97519
  845  H   0.84813
  846  C   1.07811   0.98675   1.03860   1.02148
  847  C   1.05790   0.96578   0.99261   1.03868
  848  H   0.85791
  849  C   1.06073   1.06788   1.04089   1.01191
  850  H   0.85924
  851  C   1.08819   0.79744   0.68241   0.71193
  852  C   1.07631   0.96147   0.98244   0.97710
  853  C   1.05588   1.04747   1.03397   0.99827
  854  H   0.86392
  855  C   1.05680   0.98555   1.04899   1.03451
  856  H   0.86469
  857  C   1.05254   0.98141   0.99388   0.99210
  858  C   1.05989   1.04381   1.02351   0.99931
  859  H   0.86311
  860  C   1.05631   0.98901   1.05230   1.03784
  861  H   0.86301
  862  C   1.05344   0.97574   0.98317   0.97556
  863  C   1.05759   1.04780   1.03596   1.01578
  864  H   0.86338
  865  C   1.05952   0.97463   1.04610   1.00765
  866  H   0.85997
  867  C   1.07548   0.98573   1.01193   1.00846
  868  C   1.05665   1.03481   1.01274   0.97204
  869  H   0.85787
  870  C   1.05580   0.98817   1.06119   1.04682
  871  H   0.86118
  872  C   1.11197   0.79941   0.64242   0.74941
  873  C   1.05004   1.05957   1.01317   0.94479
  874  H   0.85468
  875  C   1.05356   0.98889   1.09490   1.04674
  876  H   0.86427
  877  C   1.04364   1.06623   1.02130   1.00891
  878  H   0.86338
  879  C   1.04210   0.99102   1.09320   1.00467
  880  H   0.86221
  881  C   1.05159   0.98126   0.96914   1.06248
  882  H   0.85021
  883  C   1.05208   1.02559   1.02124   1.07264
  884  H   0.86086
  885  C   1.04233   1.06637   1.01583   1.00832
  886  H   0.86180
  887  C   1.03676   0.99675   1.09050   1.01700
  888  H   0.85639
  889 Zn   0.63846   0.14345   0.18526   0.15431
  890 Zn   0.62651   0.16069   0.15957   0.15626
  891  O   1.77996   1.57333   1.45503   1.77936
  892  O   1.81966   1.69938   1.57641   1.49417
  893  O   1.81420   1.74249   1.52042   1.47135
  894  O   1.81760   1.46579   1.62392   1.71699
  895  O   1.86079   1.62047   1.45364   1.72191
  896  O   1.70478   1.66555   1.48608   1.62402
  897  O   1.81135   1.45155   1.65047   1.67466
  898  O   1.80087   1.63266   1.70637   1.43945
  899  C   1.07412   0.97651   0.96073   0.95842
  900  C   1.05471   1.06850   1.03793   1.00927
  901  H   0.85941
  902  C   1.06280   0.97061   0.96833   0.97276
  903  C   1.05608   0.98594   1.04174   1.08709
  904  H   0.85986
  905  C   1.07762   0.95922   0.96318   0.97200
  906  C   1.05521   1.06251   1.03773   1.01619
  907  H   0.85921
  908  C   1.07656   0.98594   0.98200   0.96097
  909  C   1.05640   1.04787   1.03779   0.99546
  910  H   0.86421
  911  C   1.05574   1.03922   1.00609   1.02604
  912  H   0.86404
  913  C   1.07339   0.98579   0.98407   0.96306
  914  C   1.05707   1.04434   1.03338   0.99326
  915  H   0.86292
  916  C   1.05661   1.04571   1.00110   1.03243
  917  H   0.86348
  918  C   1.08139   1.05249   0.99689   0.98729
  919  C   1.06134   0.96175   1.07367   0.97514
  920  H   0.85667
  921  C   1.05677   1.04209   1.02598   1.05390
  922  H   0.86188
  923  C   1.07885   0.95363   0.97816   0.95793
  924  C   1.05533   1.04266   1.08508   0.99063
  925  H   0.86032
  926  C   1.06126   0.95076   1.00854   1.03870
  927  H   0.85298
  928  C   1.07751   0.65280   0.72801   0.81568
  929  C   1.06239   0.97673   0.99221   0.98213
  930  C   1.05935   0.98654   1.02150   1.05962
  931  H   0.86361
  932  C   1.05915   1.05824   1.01804   1.00663
  933  H   0.86493
  934  C   1.07665   0.95651   0.98282   0.98385
  935  C   1.05544   0.98440   1.03136   1.06632
  936  H   0.86233
  937  C   1.05532   1.05201   1.01337   0.99649
  938  H   0.86366
  939  C   1.07859   0.95514   0.96163   0.97175
  940  C   1.05311   0.98794   1.05718   1.07381
  941  H   0.86258
  942  C   1.06708   1.05776   0.97163   0.97363
  943  H   0.84821
  944  C   1.07762   0.98727   1.04122   1.02253
  945  C   1.05815   0.96536   0.99025   1.03718
  946  H   0.85822
  947  C   1.06041   1.06848   1.04339   1.01340
  948  H   0.85916
  949  C   1.08817   0.79731   0.68226   0.71172
  950  C   1.07725   0.96144   0.97905   0.97209
  951  C   1.05572   1.04743   1.03552   1.00015
  952  H   0.86268
  953  C   1.05724   0.98460   1.04586   1.03093
  954  H   0.86496
  955  C   1.05193   0.98278   0.99883   0.99785
  956  C   1.06029   1.04346   1.02037   0.99536
  957  H   0.86346
  958  C   1.05615   0.98909   1.05417   1.04011
  959  H   0.86213
  960  C   1.05537   0.97320   0.97862   0.96511
  961  C   1.05687   1.04972   1.04009   1.02391
  962  H   0.86208
  963  C   1.06101   0.98006   1.03694   1.00876
  964  H   0.86011
  965  C   1.07856   1.00019   1.01783   1.02548
  966  C   1.06022   1.02880   0.99510   0.95457
  967  H   0.85404
  968  C   1.05637   0.99433   1.06728   1.05769
  969  H   0.86044
  970  C   1.07420   0.78825   0.72653   0.67753
  971  C   1.05004   1.05960   1.01321   0.94486
  972  H   0.85469
  973  C   1.05356   0.98886   1.09490   1.04671
  974  H   0.86426
  975  C   1.04364   1.06625   1.02121   1.00876
  976  H   0.86325
  977  C   1.04210   0.99100   1.09319   1.00457
  978  H   0.86219
  979  C   1.05159   0.98118   0.96905   1.06244
  980  H   0.85018
  981  C   1.05208   1.02565   1.02131   1.07264
  982  H   0.86091
  983  C   1.04232   1.06636   1.01581   1.00829
  984  H   0.86179
  985  C   1.03677   0.99677   1.09052   1.01703
  986  H   0.85638
  987 Zn   0.63847   0.17556   0.15312   0.15431
  988 Zn   0.62650   0.14612   0.17413   0.15626
  989  O   1.77994   1.60482   1.42354   1.77936
  990  O   1.81968   1.55949   1.71630   1.49418
  991  O   1.81418   1.55667   1.70626   1.47134
  992  O   1.81758   1.76027   1.32946   1.71701
  993  O   1.86083   1.29614   1.77791   1.72195
  994  O   1.70470   1.66815   1.48353   1.62398
  995  O   1.81130   1.42804   1.67405   1.67463
  996  O   1.80087   1.67745   1.66158   1.43945
  997  C   1.07413   0.96543   0.97181   0.95843
  998  C   1.05468   1.03599   1.07046   1.00927
  999  H   0.85942
 1000  C   1.06280   0.96690   0.97205   0.97275
 1001  C   1.05608   1.02484   1.00283   1.08710
 1002  H   0.85986
 1003  C   1.07763   0.96558   0.95681   0.97201
 1004  C   1.05523   1.05706   1.04315   1.01619
 1005  H   0.85921
 1006  C   1.07653   0.98367   0.98440   0.96100
 1007  C   1.05643   1.01013   1.07541   0.99545
 1008  H   0.86420
 1009  C   1.05574   1.00626   1.03914   1.02605
 1010  H   0.86404
 1011  C   1.07342   0.98667   0.98307   0.96304
 1012  C   1.05705   1.00280   1.07501   0.99326
 1013  H   0.86292
 1014  C   1.05660   1.00551   1.04124   1.03243
 1015  H   0.86346
 1016  C   1.08138   1.02265   1.02683   0.98731
 1017  C   1.06134   1.01305   1.02226   0.97513
 1018  H   0.85668
 1019  C   1.05677   1.03034   1.03782   1.05392
 1020  H   0.86188
 1021  C   1.07887   0.96442   0.96724   0.95790
 1022  C   1.05534   1.06410   1.06372   0.99064
 1023  H   0.86032
 1024  C   1.06127   0.97475   0.98446   1.03869
 1025  H   0.85299
 1026  C   1.07750   0.68663   0.69417   0.81568
 1027  C   1.06241   0.98466   0.98421   0.98210
 1028  C   1.05934   1.01513   0.99298   1.05965
 1029  H   0.86360
 1030  C   1.05915   1.00199   1.07422   1.00661
 1031  H   0.86495
 1032  C   1.07666   0.97468   0.96473   0.98388
 1033  C   1.05546   1.02806   0.98762   1.06629
 1034  H   0.86233
 1035  C   1.05531   0.99597   1.06947   0.99651
 1036  H   0.86366
 1037  C   1.07859   0.95562   0.96104   0.97169
 1038  C   1.05308   1.05078   0.99445   1.07387
 1039  H   0.86257
 1040  C   1.06710   0.95146   1.07784   0.97358
 1041  H   0.84821
 1042  C   1.07763   1.04017   0.98839   1.02259
 1043  C   1.05815   0.97749   0.97803   1.03713
 1044  H   0.85823
 1045  C   1.06039   1.02649   1.08549   1.01345
 1046  H   0.85915
 1047  C   1.08817   0.70347   0.77608   0.71172
 1048  C   1.07726   0.98091   0.95954   0.97204
 1049  C   1.05572   1.07483   1.00815   1.00019
 1050  H   0.86267
 1051  C   1.05725   1.02173   1.00870   1.03089
 1052  H   0.86494
 1053  C   1.05193   0.99075   0.99090   0.99789
 1054  C   1.06028   1.06713   0.99669   0.99532
 1055  H   0.86347
 1056  C   1.05615   1.02640   1.01690   1.04015
 1057  H   0.86212
 1058  C   1.05537   0.98189   0.96988   0.96506
 1059  C   1.05685   1.07868   1.01117   1.02396
 1060  H   0.86208
 1061  C   1.06102   1.01772   0.99926   1.00872
 1062  H   0.86013
 1063  C   1.07857   0.99536   1.02267   1.02552
 1064  C   1.06021   1.06159   0.96228   0.95454
 1065  H   0.85405
 1066  C   1.05634   1.03183   1.02983   1.05775
 1067  H   0.86043
 1068  C   1.07417   0.74507   0.76971   0.67753
 1069  C   1.05003   1.07343   0.99940   0.94482
 1070  H   0.85467
 1071  C   1.05352   1.07110   1.01270   1.04677
 1072  H   0.86424
 1073  C   1.04365   1.07323   1.01421   1.00874
 1074  H   0.86327
 1075  C   1.04210   1.07244   1.01174   1.00460
 1076  H   0.86220
 1077  C   1.05161   0.94793   1.00225   1.06244
 1078  H   0.85017
 1079  C   1.05206   1.03377   1.01325   1.07264
 1080  H   0.86091
 1081  C   1.04232   1.06603   1.01612   1.00829
 1082  H   0.86180
 1083  C   1.03680   1.06884   1.01843   1.01703
 1084  H   0.85638
 1085 Zn   0.63846   0.17401   0.15467   0.15432
 1086 Zn   0.62650   0.17357   0.14670   0.15625
 1087  O   1.77996   1.36440   1.66395   1.77937
 1088  O   1.81966   1.65483   1.62098   1.49417
 1089  O   1.81418   1.59525   1.66768   1.47131
 1090  O   1.81760   1.40848   1.68123   1.71703
 1091  O   1.86082   1.69451   1.37958   1.72194
 1092  O   1.70479   1.39376   1.75786   1.62401
 1093  O   1.81131   1.77349   1.32859   1.67460
 1094  O   1.80086   1.69844   1.64059   1.43946
 1095  C   1.07411   0.96394   0.97332   0.95843
 1096  C   1.05469   1.05518   1.05128   1.00928
 1097  H   0.85940
 1098  C   1.06281   0.97091   0.96803   0.97275
 1099  C   1.05608   1.03073   0.99694   1.08709
 1100  H   0.85986
 1101  C   1.07762   0.95879   0.96361   0.97201
 1102  C   1.05524   1.03075   1.06944   1.01619
 1103  H   0.85922
 1104  C   1.07654   0.98242   0.98554   0.96098
 1105  C   1.05643   1.07036   1.01525   0.99546
 1106  H   0.86420
 1107  C   1.05574   1.02257   1.02275   1.02604
 1108  H   0.86406
 1109  C   1.07341   0.98222   0.98762   0.96306
 1110  C   1.05706   1.06951   1.00820   0.99325
 1111  H   0.86294
 1112  C   1.05659   1.01894   1.02791   1.03245
 1113  H   0.86346
 1114  C   1.08138   0.99898   1.05041   0.98730
 1115  C   1.06133   1.07828   0.95714   0.97514
 1116  H   0.85666
 1117  C   1.05676   1.02972   1.03835   1.05391
 1118  H   0.86187
 1119  C   1.07885   0.97956   0.95222   0.95792
 1120  C   1.05535   1.08488   1.04285   0.99063
 1121  H   0.86031
 1122  C   1.06127   1.01339   0.94590   1.03869
 1123  H   0.85299
 1124  C   1.07750   0.73177   0.64904   0.81567
 1125  C   1.06240   0.99195   0.97696   0.98212
 1126  C   1.05936   1.01045   0.99761   1.05964
 1127  H   0.86361
 1128  C   1.05915   1.05412   1.02213   1.00663
 1129  H   0.86495
 1130  C   1.07667   0.97787   0.96146   0.98385
 1131  C   1.05546   1.01110   1.00462   1.06631
 1132  H   0.86234
 1133  C   1.05530   1.05016   1.01526   0.99651
 1134  H   0.86366
 1135  C   1.07856   0.96431   0.95247   0.97176
 1136  C   1.05307   1.02908   1.01608   1.07382
 1137  H   0.86257
 1138  C   1.06710   1.03479   0.99460   0.97363
 1139  H   0.84818
 1140  C   1.07762   1.01537   1.01313   1.02253
 1141  C   1.05814   0.99050   0.96513   1.03719
 1142  H   0.85822
 1143  C   1.06043   1.07289   1.03894   1.01339
 1144  H   0.85915
 1145  C   1.08818   0.71856   0.76099   0.71172
 1146  C   1.07727   0.96837   0.97211   0.97209
 1147  C   1.05572   1.00217   1.08076   1.00015
 1148  H   0.86269
 1149  C   1.05726   1.03936   0.99108   1.03093
 1150  H   0.86496
 1151  C   1.05193   0.99889   0.98270   0.99784
 1152  C   1.06026   0.98518   1.07870   0.99538
 1153  H   0.86347
 1154  C   1.05617   1.04939   0.99384   1.04010
 1155  H   0.86213
 1156  C   1.05536   0.97264   0.97919   0.96511
 1157  C   1.05686   1.00632   1.08349   1.02390
 1158  H   0.86208
 1159  C   1.06102   1.02772   0.98929   1.00876
 1160  H   0.86011
 1161  C   1.07857   1.03147   0.98655   1.02548
 1162  C   1.06020   0.94545   1.07847   0.95458
 1163  H   0.85405
 1164  C   1.05635   1.06628   0.99535   1.05769
 1165  H   0.86043
 1166  C   1.07418   0.73886   0.77592   0.67754
 1167  C   1.05004   0.97622   1.09661   0.94484
 1168  H   0.85467
 1169  C   1.05354   1.06573   1.01808   1.04673
 1170  H   0.86423
 1171  C   1.04362   0.99171   1.09576   1.00876
 1172  H   0.86326
 1173  C   1.04207   1.06286   1.02137   1.00460
 1174  H   0.86218
 1175  C   1.05161   0.99620   0.95402   1.06244
 1176  H   0.85016
 1177  C   1.05206   1.01108   1.03591   1.07264
 1178  H   0.86091
 1179  C   1.04229   0.99085   1.09133   1.00829
 1180  H   0.86180
 1181  C   1.03676   1.06533   1.02198   1.01703
 1182  H   0.85637
 1183 Zn   0.61331   0.12434   0.12435   0.22910
 1184 Zn   0.61331   0.12434   0.12434   0.22909
 1185  O   1.70116   1.74473   1.74473   1.63812
 1186  O   1.70115   1.74473   1.74474   1.63811
 1187  O   1.71313   1.70304   1.71651   1.72406
 1188  C   1.06366   0.73463   0.82540   0.64779
 1189  C   1.06107   1.01016   1.00513   1.05900
 1190  C   1.08695   0.98592   0.94228   0.94012
 1191  C   1.06367   0.99384   0.95384   0.98451
 1192  C   1.04751   1.00078   0.96886   0.99121
 1193  C   1.05396   0.98445   0.96143   0.96401
 1194  C   1.08319   0.63618   0.82961   0.72029
 1195  C   1.05269   1.07118   0.99050   1.01396
 1196  C   1.06762   0.95274   0.95826   0.99124
 1197  C   1.05978   0.99854   0.95792   0.99282
 1198  C   1.05321   0.99287   0.96348   0.98783
 1199  C   1.07018   0.97912   0.95595   0.95046
 1200  O   1.71311   1.71308   1.70648   1.72407
 1201  C   1.06368   0.80273   0.75731   0.64777
 1202  C   1.06108   1.00637   1.00890   1.05905
 1203  C   1.08697   0.95318   0.97500   0.94006
 1204  C   1.06364   0.96387   0.98383   0.98456
 1205  C   1.04750   0.97683   0.99283   0.99119
 1206  C   1.05393   0.96719   0.97871   0.96402
 1207  C   1.08318   0.78126   0.68453   0.72030
 1208  C   1.05270   1.01067   1.05102   1.01397
 1209  C   1.06760   0.95688   0.95412   0.99124
 1210  C   1.05977   0.96810   0.98840   0.99285
 1211  C   1.05316   0.97085   0.98553   0.98783
 1212  C   1.07022   0.96173   0.97332   0.95045
 1213  O   1.71312   1.71319   1.70637   1.72406
 1214  C   1.06369   0.80271   0.75734   0.64777
 1215  C   1.06107   1.00638   1.00889   1.05906
 1216  C   1.08697   0.95318   0.97500   0.94006
 1217  C   1.06364   0.96382   0.98389   0.98455
 1218  C   1.04749   0.97687   0.99280   0.99119
 1219  C   1.05392   0.96720   0.97871   0.96403
 1220  C   1.08318   0.78125   0.68454   0.72029
 1221  C   1.05269   1.01068   1.05103   1.01397
 1222  C   1.06760   0.95688   0.95412   0.99124
 1223  C   1.05977   0.96809   0.98840   0.99284
 1224  C   1.05317   0.97084   0.98553   0.98783
 1225  C   1.07022   0.96173   0.97332   0.95045
 1226  O   1.71312   1.70304   1.71652   1.72407
 1227  C   1.06366   0.73463   0.82540   0.64778
 1228  C   1.06107   1.01017   1.00511   1.05904
 1229  C   1.08697   0.98591   0.94227   0.94005
 1230  C   1.06363   0.99386   0.95385   0.98458
 1231  C   1.04752   1.00078   0.96887   0.99116
 1232  C   1.05396   0.98445   0.96143   0.96400
 1233  C   1.08315   0.63620   0.82961   0.72030
 1234  C   1.05270   1.07123   0.99052   1.01398
 1235  C   1.06760   0.95270   0.95826   0.99124
 1236  C   1.05976   0.99855   0.95795   0.99285
 1237  C   1.05321   0.99287   0.96348   0.98782
 1238  C   1.07018   0.97913   0.95595   0.95047
 1239  O   1.71312   1.71320   1.70634   1.72407
 1240  C   1.06370   0.80270   0.75734   0.64777
 1241  C   1.06108   1.00637   1.00889   1.05901
 1242  C   1.08695   0.95318   0.97501   0.94010
 1243  C   1.06363   0.96383   0.98388   0.98455
 1244  C   1.04752   0.97686   0.99278   0.99119
 1245  C   1.05394   0.96720   0.97870   0.96400
 1246  C   1.08316   0.78125   0.68454   0.72030
 1247  C   1.05270   1.01068   1.05102   1.01397
 1248  C   1.06759   0.95689   0.95413   0.99125
 1249  C   1.05975   0.96809   0.98841   0.99284
 1250  C   1.05317   0.97084   0.98553   0.98784
 1251  C   1.07022   0.96173   0.97332   0.95045
 1252  O   1.71311   1.71310   1.70645   1.72408
 1253  C   1.06370   0.80273   0.75731   0.64777
 1254  C   1.06108   1.00636   1.00890   1.05903
 1255  C   1.08695   0.95318   0.97500   0.94008
 1256  C   1.06364   0.96388   0.98383   0.98456
 1257  C   1.04753   0.97682   0.99282   0.99117
 1258  C   1.05394   0.96719   0.97870   0.96400
 1259  C   1.08317   0.78126   0.68454   0.72029
 1260  C   1.05269   1.01068   1.05103   1.01397
 1261  C   1.06760   0.95688   0.95412   0.99124
 1262  C   1.05975   0.96810   0.98841   0.99285
 1263  C   1.05317   0.97085   0.98553   0.98783
 1264  C   1.07022   0.96173   0.97332   0.95045
 1265  C   1.04238   1.07490   1.02246   1.03820
 1266  H   0.85678
 1267  C   1.04238   0.99625   1.10113   1.03821
 1268  H   0.85675
 1269  C   1.04239   1.07489   1.02245   1.03820
 1270  H   0.85678
 1271  C   1.04237   1.07490   1.02247   1.03822
 1272  H   0.85677
 1273  C   1.04239   0.99625   1.10112   1.03822
 1274  H   0.85676
 1275  C   1.04236   1.07490   1.02247   1.03822
 1276  H   0.85677
 1277  C   1.04129   1.07698   1.02409   1.05176
 1278  H   0.85472
 1279  C   1.04130   1.07698   1.02409   1.05176
 1280  H   0.85471
 1281  C   1.04134   0.99761   1.10341   1.05174
 1282  H   0.85472
 1283  C   1.04130   1.07699   1.02408   1.05175
 1284  H   0.85470
 1285  C   1.04131   1.07697   1.02408   1.05174
 1286  H   0.85471
 1287  C   1.04134   0.99761   1.10341   1.05173
 1288  H   0.85472

 **********************
 *                    *
 * JOB ENDED NORMALLY *
 *                    *
 **********************



 TOTAL JOB TIME:           812.54 SECONDS

 == MOPAC DONE ==
