 *******************************************************************************
 ** Cite this program as: MOPAC2016, Version: 22.067 , James J. P. Stewart,   **
 **                           web-site: HTTP://OpenMOPAC.net.                 **
 *******************************************************************************
 **                                                                           **
 **                                MOPAC2016                                  **
 **                                                                           **
 *******************************************************************************

                              PM7 CALCULATION RESULTS

 *******************************************************************************
 *  CALCULATION DONE:                                Wed Apr 13 10:49:47 2022  *
 *  PM7        - The PM7 Hamiltonian to be used
 *  SINGLET    - SPIN STATE DEFINED AS A SINGLET
 *  NOOPT      - DO NOT OPTIMIZE ANY COORDINATES
 *
 *
 *
 *                 CHARGE ON SYSTEM = 0
 *
 *
 *
 *  T=         - A TIME OF 172800.0 SECONDS REQUESTED
 *  DUMP=N     - RESTART FILE WRITTEN EVERY 7200.0 SECONDS REQUESTED
 *  AUX        - OUTPUT AUXILIARY INFORMATION
 *  LARGE      - EXPANDED OUTPUT TO BE PRINTED
 *******************************************************************************
 AUX LARGE CHARGE=0 SINGLET NOOPT PM7
 Title

   ATOM   CHEMICAL          X               Y               Z
  NUMBER   SYMBOL      (ANGSTROMS)     (ANGSTROMS)     (ANGSTROMS)
 
     1       C         31.69507000     23.50089000     24.63497000   
     2       C         15.30672000      7.11254000     24.63497000   
     3       C         15.30672000     23.50089000      8.24662000   
     4       C          1.08163000     25.66416000      8.24662000   
     5       C         17.46998000     25.66416000     24.63497000   
     6       C         17.46998000      9.27581000      8.24662000   
     7       C          1.08163000      7.11254000     24.53008000   
     8       C         31.69507000      9.27581000      8.14173000   
     9       C         24.63497000     31.69507000     23.50089000   
    10       C         24.63497000     15.30672000      7.11254000   
    11       C         24.63497000      1.08163000      9.27581000   
    12       C         24.53008000     17.46998000     23.50089000   
    13       C          8.14173000      1.08163000     23.50089000   
    14       C          8.14173000     17.46998000      7.11254000   
    15       C          8.14173000     31.69507000      9.27581000   
    16       C          8.14173000     15.30672000     25.66416000   
    17       C         23.50089000     24.63497000     31.69507000   
    18       C         25.66416000     24.63497000     17.46998000   
    19       C          9.27581000     24.63497000      1.08163000   
    20       C          7.11254000      8.14173000     17.46998000   
    21       C         23.50089000      8.14173000      1.08163000   
    22       C         25.66416000      8.14173000     15.30672000   
    23       C          9.27581000     24.53008000     15.30672000   
    24       C          9.27581000      8.14173000     31.69507000   
    25       C         23.50089000     31.69507000      8.14173000   
    26       C          9.27581000      1.08163000      8.14173000   
    27       C          9.27581000     17.46998000     24.53008000   
    28       C         23.50089000      1.08163000     24.63497000   
    29       C         23.50089000     17.46998000      8.24662000   
    30       C         25.66416000     15.30672000     24.63497000   
    31       C          9.27581000     31.69507000     24.63497000   
    32       C          9.27581000     15.30672000      8.24662000   
    33       C         31.69507000      8.24662000     25.66416000   
    34       C          1.08163000     24.63497000     23.50089000   
    35       C         17.46998000      8.24662000     23.50089000   
    36       C         17.46998000     24.63497000      7.11254000   
    37       C          1.08163000      8.14173000      9.27581000   
    38       C         31.69507000     24.53008000      7.11254000   
    39       C         15.30672000     24.53008000     23.50089000   
    40       C         15.30672000      8.14173000      7.11254000   
    41       C         24.63497000     23.50089000      1.08163000   
    42       C          8.24662000      9.27581000     15.30672000   
    43       C         24.63497000      9.27581000     31.69507000   
    44       C         24.53008000     23.50089000     15.30672000   
    45       C          8.14173000     23.50089000     31.69507000   
    46       C         24.53008000      9.27581000     17.46998000   
    47       C          8.14173000     25.66416000     17.46998000   
    48       C          8.14173000      9.27581000      1.08163000   
    49       C          1.08163000     25.66416000     24.53008000   
    50       C         17.46998000     25.66416000      8.14173000   
    51       C         17.46998000      9.27581000     24.53008000   
    52       C         31.69507000     23.50089000      8.14173000   
    53       C         15.30672000      7.11254000      8.14173000   
    54       C         15.30672000     23.50089000     24.53008000   
    55       C         31.69507000      9.27581000     24.63497000   
    56       C          1.08163000      7.11254000      8.24662000   
    57       C         24.53008000      1.08163000     25.66416000   
    58       C         24.53008000     17.46998000      9.27581000   
    59       C         24.53008000     31.69507000      7.11254000   
    60       C          8.24662000     31.69507000     25.66416000   
    61       C          8.24662000     15.30672000      9.27581000   
    62       C         24.63497000     15.30672000     25.66416000   
    63       C          8.24662000      1.08163000      7.11254000   
    64       C          8.24662000     17.46998000     23.50089000   
    65       C         25.66416000     24.53008000      1.08163000   
    66       C          7.11254000     24.53008000     31.69507000   
    67       C         23.50089000     24.53008000     15.30672000   
    68       C         25.66416000      8.24662000     31.69507000   
    69       C          9.27581000      8.24662000     15.30672000   
    70       C          7.11254000      8.24662000      1.08163000   
    71       C          7.11254000     24.63497000     17.46998000   
    72       C         23.50089000      8.24662000     17.46998000   
    73       C         25.66416000      1.08163000      8.24662000   
    74       C          7.11254000     31.69507000      8.24662000   
    75       C          7.11254000     15.30672000     24.63497000   
    76       C         25.66416000     31.69507000     24.53008000   
    77       C         25.66416000     15.30672000      8.14173000   
    78       C          7.11254000      1.08163000     24.53008000   
    79       C          7.11254000     17.46998000      8.14173000   
    80       C         23.50089000     17.46998000     24.53008000   
    81       C          1.08163000      8.14173000     23.50089000   
    82       C         31.69507000     24.53008000     25.66416000   
    83       C         15.30672000     24.53008000      9.27581000   
    84       C         15.30672000      8.14173000     25.66416000   
    85       C         31.69507000      8.24662000      7.11254000   
    86       C          1.08163000     24.63497000      9.27581000   
    87       C         17.46998000      8.24662000      9.27581000   
    88       C         17.46998000     24.63497000     25.66416000   
    89       C         24.53008000     25.66416000     31.69507000   
    90       C         24.53008000      7.11254000      1.08163000   
    91       C          8.14173000      7.11254000     17.46998000   
    92       C          8.24662000     25.66416000      1.08163000   
    93       C         24.63497000     25.66416000     17.46998000   
    94       C          8.24662000      7.11254000     31.69507000   
    95       C          8.24662000     23.50089000     15.30672000   
    96       C         24.63497000      7.11254000     15.30672000   
    97      Zr          0.00000000      0.00000000      2.47464000   
    98      Zr          0.00000000     16.38835000     18.86299000   
    99      Zr         16.38835000      0.00000000     18.86299000   
   100      Zr         16.38835000     16.38835000      2.47464000   
   101      Zr          0.00000000      0.00000000     30.30206000   
   102      Zr          0.00000000     16.38835000     13.91371000   
   103      Zr         16.38835000      0.00000000     13.91371000   
   104      Zr         16.38835000     16.38835000     30.30206000   
   105      Zr          2.47464000      0.00000000      0.00000000   
   106      Zr          2.47464000     16.38835000     16.38835000   
   107      Zr         18.86299000      0.00000000     16.38835000   
   108      Zr         18.86299000     16.38835000      0.00000000   
   109      Zr         30.30206000      0.00000000      0.00000000   
   110      Zr         30.30206000     16.38835000     16.38835000   
   111      Zr         13.91371000      0.00000000     16.38835000   
   112      Zr         13.91371000     16.38835000      0.00000000   
   113      Zr          0.00000000      2.47464000      0.00000000   
   114      Zr          0.00000000     18.86299000     16.38835000   
   115      Zr         16.38835000      2.47464000     16.38835000   
   116      Zr         16.38835000     18.86299000      0.00000000   
   117      Zr          0.00000000     30.30206000      0.00000000   
   118      Zr          0.00000000     13.91371000     16.38835000   
   119      Zr         16.38835000     30.30206000     16.38835000   
   120      Zr         16.38835000     13.91371000      0.00000000   
   121       O          1.21733000      1.21733000      1.21733000   
   122       O          1.21733000     17.60568000     17.60568000   
   123       O         17.60568000      1.21733000     17.60568000   
   124       O         17.60568000     17.60568000      1.21733000   
   125       O         31.55937000     31.55937000      1.21733000   
   126       O         31.55937000     15.17102000     17.60568000   
   127       O         15.17102000     31.55937000     17.60568000   
   128       O         15.17102000     15.17102000      1.21733000   
   129       O         31.55937000      1.21733000     31.55937000   
   130       O         31.55937000     17.60568000     15.17102000   
   131       O         15.17102000      1.21733000     15.17102000   
   132       O         15.17102000     17.60568000     31.55937000   
   133       O          1.21733000     31.55937000     31.55937000   
   134       O          1.21733000     15.17102000     15.17102000   
   135       O         17.60568000     31.55937000     15.17102000   
   136       O         17.60568000     15.17102000     31.55937000   
   137       O          1.21733000      1.21733000     31.55937000   
   138       O          1.21733000     17.60568000     15.17102000   
   139       O         17.60568000      1.21733000     15.17102000   
   140       O         17.60568000     17.60568000     31.55937000   
   141       O         31.55937000     31.55937000     31.55937000   
   142       O         31.55937000     15.17102000     15.17102000   
   143       O         15.17102000     31.55937000     15.17102000   
   144       O         15.17102000     15.17102000     31.55937000   
   145       O          1.21733000     31.55937000      1.21733000   
   146       O          1.21733000     15.17102000     17.60568000   
   147       O         17.60568000     31.55937000     17.60568000   
   148       O         17.60568000     15.17102000      1.21733000   
   149       O         31.55937000      1.21733000      1.21733000   
   150       O         31.55937000     17.60568000     17.60568000   
   151       O         15.17102000      1.21733000     17.60568000   
   152       O         15.17102000     17.60568000      1.21733000   
   153       O          0.00000000      1.94333000      3.55037000   
   154       C          0.00000000      5.50911000      3.83356000   
   155       H          0.00000000      5.80016000      2.73128000   
   156       C          0.00000000      6.48946000      4.82801000   
   157       H          0.00000000      7.59272000      4.54088000   
   158       O          0.00000000     18.33168000     19.93872000   
   159       C          0.00000000     21.89746000     20.22191000   
   160       H          0.00000000     22.18851000     19.11963000   
   161       C          0.00000000     22.87781000     21.21636000   
   162       H          0.00000000     23.98107000     20.92923000   
   163       O         16.38835000      1.94333000     19.93872000   
   164       C         16.38835000      5.50911000     20.22191000   
   165       H         16.38835000      5.80016000     19.11963000   
   166       C         16.38835000      6.48946000     21.21636000   
   167       H         16.38835000      7.59272000     20.92923000   
   168       O         16.38835000     18.33168000      3.55037000   
   169       C         16.38835000     21.89746000      3.83356000   
   170       H         16.38835000     22.18851000      2.73128000   
   171       C         16.38835000     22.87781000      4.82801000   
   172       H         16.38835000     23.98107000      4.54088000   
   173       O          0.00000000     30.83337000      3.55037000   
   174       C          0.00000000     27.26759000      3.83356000   
   175       H          0.00000000     26.97654000      2.73128000   
   176       C          0.00000000     26.28724000      4.82801000   
   177       H          0.00000000     25.18398000      4.54088000   
   178       O          0.00000000     14.44502000     19.93872000   
   179       C          0.00000000     10.87924000     20.22191000   
   180       H          0.00000000     10.58819000     19.11963000   
   181       C          0.00000000      9.89889000     21.21636000   
   182       H          0.00000000      8.79563000     20.92923000   
   183       O         16.38835000     30.83337000     19.93872000   
   184       C         16.38835000     27.26759000     20.22191000   
   185       H         16.38835000     26.97654000     19.11963000   
   186       C         16.38835000     26.28724000     21.21636000   
   187       H         16.38835000     25.18398000     20.92923000   
   188       O         16.38835000     14.44502000      3.55037000   
   189       C         16.38835000     10.87924000      3.83356000   
   190       H         16.38835000     10.58819000      2.73128000   
   191       C         16.38835000      9.89889000      4.82801000   
   192       H         16.38835000      8.79563000      4.54088000   
   193       O          0.00000000      1.94333000     29.22633000   
   194       C          0.00000000      5.50911000     28.94314000   
   195       H          0.00000000      5.80016000     30.04542000   
   196       C          0.00000000      6.48946000     27.94869000   
   197       H          0.00000000      7.59272000     28.23582000   
   198       O          0.00000000     18.33168000     12.83798000   
   199       C          0.00000000     21.89746000     12.55479000   
   200       H          0.00000000     22.18851000     13.65707000   
   201       C          0.00000000     22.87781000     11.56034000   
   202       H          0.00000000     23.98107000     11.84747000   
   203       O         16.38835000      1.94333000     12.83798000   
   204       C         16.38835000      5.50911000     12.55479000   
   205       H         16.38835000      5.80016000     13.65707000   
   206       C         16.38835000      6.48946000     11.56034000   
   207       H         16.38835000      7.59272000     11.84747000   
   208       O         16.38835000     18.33168000     29.22633000   
   209       C         16.38835000     21.89746000     28.94314000   
   210       H         16.38835000     22.18851000     30.04542000   
   211       C         16.38835000     22.87781000     27.94869000   
   212       H         16.38835000     23.98107000     28.23582000   
   213       O          0.00000000     30.83337000     29.22633000   
   214       C          0.00000000     27.26759000     28.94314000   
   215       H          0.00000000     26.97654000     30.04542000   
   216       C          0.00000000     26.28724000     27.94869000   
   217       H          0.00000000     25.18398000     28.23582000   
   218       O          0.00000000     14.44502000     12.83798000   
   219       C          0.00000000     10.87924000     12.55479000   
   220       H          0.00000000     10.58819000     13.65707000   
   221       C          0.00000000      9.89889000     11.56034000   
   222       H          0.00000000      8.79563000     11.84747000   
   223       O         16.38835000     30.83337000     12.83798000   
   224       C         16.38835000     27.26759000     12.55479000   
   225       H         16.38835000     26.97654000     13.65707000   
   226       C         16.38835000     26.28724000     11.56034000   
   227       H         16.38835000     25.18398000     11.84747000   
   228       O         16.38835000     14.44502000     29.22633000   
   229       C         16.38835000     10.87924000     28.94314000   
   230       H         16.38835000     10.58819000     30.04542000   
   231       C         16.38835000      9.89889000     27.94869000   
   232       H         16.38835000      8.79563000     28.23582000   
   233       O          3.55037000      0.00000000      1.94333000   
   234       C          3.83356000      0.00000000      5.50911000   
   235       H          2.73128000      0.00000000      5.80016000   
   236       C          4.82801000      0.00000000      6.48946000   
   237       H          4.54088000      0.00000000      7.59272000   
   238       O          3.55037000     16.38835000     18.33168000   
   239       C          3.83356000     16.38835000     21.89746000   
   240       H          2.73128000     16.38835000     22.18851000   
   241       C          4.82801000     16.38835000     22.87781000   
   242       H          4.54088000     16.38835000     23.98107000   
   243       O         19.93872000      0.00000000     18.33168000   
   244       C         20.22191000      0.00000000     21.89746000   
   245       H         19.11963000      0.00000000     22.18851000   
   246       C         21.21636000      0.00000000     22.87781000   
   247       H         20.92923000      0.00000000     23.98107000   
   248       O         19.93872000     16.38835000      1.94333000   
   249       C         20.22191000     16.38835000      5.50911000   
   250       H         19.11963000     16.38835000      5.80016000   
   251       C         21.21636000     16.38835000      6.48946000   
   252       H         20.92923000     16.38835000      7.59272000   
   253       O          3.55037000      0.00000000     30.83337000   
   254       C          3.83356000      0.00000000     27.26759000   
   255       H          2.73128000      0.00000000     26.97654000   
   256       C          4.82801000      0.00000000     26.28724000   
   257       H          4.54088000      0.00000000     25.18398000   
   258       O          3.55037000     16.38835000     14.44502000   
   259       C          3.83356000     16.38835000     10.87924000   
   260       H          2.73128000     16.38835000     10.58819000   
   261       C          4.82801000     16.38835000      9.89889000   
   262       H          4.54088000     16.38835000      8.79563000   
   263       O         19.93872000      0.00000000     14.44502000   
   264       C         20.22191000      0.00000000     10.87924000   
   265       H         19.11963000      0.00000000     10.58819000   
   266       C         21.21636000      0.00000000      9.89889000   
   267       H         20.92923000      0.00000000      8.79563000   
   268       O         19.93872000     16.38835000     30.83337000   
   269       C         20.22191000     16.38835000     27.26759000   
   270       H         19.11963000     16.38835000     26.97654000   
   271       C         21.21636000     16.38835000     26.28724000   
   272       H         20.92923000     16.38835000     25.18398000   
   273       O         29.22633000      0.00000000      1.94333000   
   274       C         28.94314000      0.00000000      5.50911000   
   275       H         30.04542000      0.00000000      5.80016000   
   276       C         27.94869000      0.00000000      6.48946000   
   277       H         28.23582000      0.00000000      7.59272000   
   278       O         29.22633000     16.38835000     18.33168000   
   279       C         28.94314000     16.38835000     21.89746000   
   280       H         30.04542000     16.38835000     22.18851000   
   281       C         27.94869000     16.38835000     22.87781000   
   282       H         28.23582000     16.38835000     23.98107000   
   283       O         12.83798000      0.00000000     18.33168000   
   284       C         12.55479000      0.00000000     21.89746000   
   285       H         13.65707000      0.00000000     22.18851000   
   286       C         11.56034000      0.00000000     22.87781000   
   287       H         11.84747000      0.00000000     23.98107000   
   288       O         12.83798000     16.38835000      1.94333000   
   289       C         12.55479000     16.38835000      5.50911000   
   290       H         13.65707000     16.38835000      5.80016000   
   291       C         11.56034000     16.38835000      6.48946000   
   292       H         11.84747000     16.38835000      7.59272000   
   293       O         29.22633000      0.00000000     30.83337000   
   294       C         28.94314000      0.00000000     27.26759000   
   295       H         30.04542000      0.00000000     26.97654000   
   296       C         27.94869000      0.00000000     26.28724000   
   297       H         28.23582000      0.00000000     25.18398000   
   298       O         29.22633000     16.38835000     14.44502000   
   299       C         28.94314000     16.38835000     10.87924000   
   300       H         30.04542000     16.38835000     10.58819000   
   301       C         27.94869000     16.38835000      9.89889000   
   302       H         28.23582000     16.38835000      8.79563000   
   303       O         12.83798000      0.00000000     14.44502000   
   304       C         12.55479000      0.00000000     10.87924000   
   305       H         13.65707000      0.00000000     10.58819000   
   306       C         11.56034000      0.00000000      9.89889000   
   307       H         11.84747000      0.00000000      8.79563000   
   308       O         12.83798000     16.38835000     30.83337000   
   309       C         12.55479000     16.38835000     27.26759000   
   310       H         13.65707000     16.38835000     26.97654000   
   311       C         11.56034000     16.38835000     26.28724000   
   312       H         11.84747000     16.38835000     25.18398000   
   313       O          1.94333000      3.55037000      0.00000000   
   314       C          5.50911000      3.83356000      0.00000000   
   315       H          5.80016000      2.73128000      0.00000000   
   316       C          6.48946000      4.82801000      0.00000000   
   317       H          7.59272000      4.54088000      0.00000000   
   318       O          1.94333000     19.93872000     16.38835000   
   319       C          5.50911000     20.22191000     16.38835000   
   320       H          5.80016000     19.11963000     16.38835000   
   321       C          6.48946000     21.21636000     16.38835000   
   322       H          7.59272000     20.92923000     16.38835000   
   323       O         18.33168000      3.55037000     16.38835000   
   324       C         21.89746000      3.83356000     16.38835000   
   325       H         22.18851000      2.73128000     16.38835000   
   326       C         22.87781000      4.82801000     16.38835000   
   327       H         23.98107000      4.54088000     16.38835000   
   328       O         18.33168000     19.93872000      0.00000000   
   329       C         21.89746000     20.22191000      0.00000000   
   330       H         22.18851000     19.11963000      0.00000000   
   331       C         22.87781000     21.21636000      0.00000000   
   332       H         23.98107000     20.92923000      0.00000000   
   333       O         30.83337000      3.55037000      0.00000000   
   334       C         27.26759000      3.83356000      0.00000000   
   335       H         26.97654000      2.73128000      0.00000000   
   336       C         26.28724000      4.82801000      0.00000000   
   337       H         25.18398000      4.54088000      0.00000000   
   338       O         30.83337000     19.93872000     16.38835000   
   339       C         27.26759000     20.22191000     16.38835000   
   340       H         26.97654000     19.11963000     16.38835000   
   341       C         26.28724000     21.21636000     16.38835000   
   342       H         25.18398000     20.92923000     16.38835000   
   343       O         14.44502000      3.55037000     16.38835000   
   344       C         10.87924000      3.83356000     16.38835000   
   345       H         10.58819000      2.73128000     16.38835000   
   346       C          9.89889000      4.82801000     16.38835000   
   347       H          8.79563000      4.54088000     16.38835000   
   348       O         14.44502000     19.93872000      0.00000000   
   349       C         10.87924000     20.22191000      0.00000000   
   350       H         10.58819000     19.11963000      0.00000000   
   351       C          9.89889000     21.21636000      0.00000000   
   352       H          8.79563000     20.92923000      0.00000000   
   353       O          1.94333000     29.22633000      0.00000000   
   354       C          5.50911000     28.94314000      0.00000000   
   355       H          5.80016000     30.04542000      0.00000000   
   356       C          6.48946000     27.94869000      0.00000000   
   357       H          7.59272000     28.23582000      0.00000000   
   358       O          1.94333000     12.83798000     16.38835000   
   359       C          5.50911000     12.55479000     16.38835000   
   360       H          5.80016000     13.65707000     16.38835000   
   361       C          6.48946000     11.56034000     16.38835000   
   362       H          7.59272000     11.84747000     16.38835000   
   363       O         18.33168000     29.22633000     16.38835000   
   364       C         21.89746000     28.94314000     16.38835000   
   365       H         22.18851000     30.04542000     16.38835000   
   366       C         22.87781000     27.94869000     16.38835000   
   367       H         23.98107000     28.23582000     16.38835000   
   368       O         18.33168000     12.83798000      0.00000000   
   369       C         21.89746000     12.55479000      0.00000000   
   370       H         22.18851000     13.65707000      0.00000000   
   371       C         22.87781000     11.56034000      0.00000000   
   372       H         23.98107000     11.84747000      0.00000000   
   373       O         30.83337000     29.22633000      0.00000000   
   374       C         27.26759000     28.94314000      0.00000000   
   375       H         26.97654000     30.04542000      0.00000000   
   376       C         26.28724000     27.94869000      0.00000000   
   377       H         25.18398000     28.23582000      0.00000000   
   378       O         30.83337000     12.83798000     16.38835000   
   379       C         27.26759000     12.55479000     16.38835000   
   380       H         26.97654000     13.65707000     16.38835000   
   381       C         26.28724000     11.56034000     16.38835000   
   382       H         25.18398000     11.84747000     16.38835000   
   383       O         14.44502000     29.22633000     16.38835000   
   384       C         10.87924000     28.94314000     16.38835000   
   385       H         10.58819000     30.04542000     16.38835000   
   386       C          9.89889000     27.94869000     16.38835000   
   387       H          8.79563000     28.23582000     16.38835000   
   388       O         14.44502000     12.83798000      0.00000000   
   389       C         10.87924000     12.55479000      0.00000000   
   390       H         10.58819000     13.65707000      0.00000000   
   391       C          9.89889000     11.56034000      0.00000000   
   392       H          8.79563000     11.84747000      0.00000000   
   393       O          1.94333000      0.00000000     29.22633000   
   394       C          5.50911000      0.00000000     28.94314000   
   395       H          5.80016000      0.00000000     30.04542000   
   396       C          6.48946000      0.00000000     27.94869000   
   397       H          7.59272000      0.00000000     28.23582000   
   398       O          1.94333000     16.38835000     12.83798000   
   399       C          5.50911000     16.38835000     12.55479000   
   400       H          5.80016000     16.38835000     13.65707000   
   401       C          6.48946000     16.38835000     11.56034000   
   402       H          7.59272000     16.38835000     11.84747000   
   403       O         18.33168000      0.00000000     12.83798000   
   404       C         21.89746000      0.00000000     12.55479000   
   405       H         22.18851000      0.00000000     13.65707000   
   406       C         22.87781000      0.00000000     11.56034000   
   407       H         23.98107000      0.00000000     11.84747000   
   408       O         18.33168000     16.38835000     29.22633000   
   409       C         21.89746000     16.38835000     28.94314000   
   410       H         22.18851000     16.38835000     30.04542000   
   411       C         22.87781000     16.38835000     27.94869000   
   412       H         23.98107000     16.38835000     28.23582000   
   413       O         30.83337000      0.00000000     29.22633000   
   414       C         27.26759000      0.00000000     28.94314000   
   415       H         26.97654000      0.00000000     30.04542000   
   416       C         26.28724000      0.00000000     27.94869000   
   417       H         25.18398000      0.00000000     28.23582000   
   418       O         30.83337000     16.38835000     12.83798000   
   419       C         27.26759000     16.38835000     12.55479000   
   420       H         26.97654000     16.38835000     13.65707000   
   421       C         26.28724000     16.38835000     11.56034000   
   422       H         25.18398000     16.38835000     11.84747000   
   423       O         14.44502000      0.00000000     12.83798000   
   424       C         10.87924000      0.00000000     12.55479000   
   425       H         10.58819000      0.00000000     13.65707000   
   426       C          9.89889000      0.00000000     11.56034000   
   427       H          8.79563000      0.00000000     11.84747000   
   428       O         14.44502000     16.38835000     29.22633000   
   429       C         10.87924000     16.38835000     28.94314000   
   430       H         10.58819000     16.38835000     30.04542000   
   431       C          9.89889000     16.38835000     27.94869000   
   432       H          8.79563000     16.38835000     28.23582000   
   433       O          1.94333000      0.00000000      3.55037000   
   434       C          5.50911000      0.00000000      3.83356000   
   435       H          5.80016000      0.00000000      2.73128000   
   436       C          6.48946000      0.00000000      4.82801000   
   437       H          7.59272000      0.00000000      4.54088000   
   438       O          1.94333000     16.38835000     19.93872000   
   439       C          5.50911000     16.38835000     20.22191000   
   440       H          5.80016000     16.38835000     19.11963000   
   441       C          6.48946000     16.38835000     21.21636000   
   442       H          7.59272000     16.38835000     20.92923000   
   443       O         18.33168000      0.00000000     19.93872000   
   444       C         21.89746000      0.00000000     20.22191000   
   445       H         22.18851000      0.00000000     19.11963000   
   446       C         22.87781000      0.00000000     21.21636000   
   447       H         23.98107000      0.00000000     20.92923000   
   448       O         18.33168000     16.38835000      3.55037000   
   449       C         21.89746000     16.38835000      3.83356000   
   450       H         22.18851000     16.38835000      2.73128000   
   451       C         22.87781000     16.38835000      4.82801000   
   452       H         23.98107000     16.38835000      4.54088000   
   453       O         30.83337000      0.00000000      3.55037000   
   454       C         27.26759000      0.00000000      3.83356000   
   455       H         26.97654000      0.00000000      2.73128000   
   456       C         26.28724000      0.00000000      4.82801000   
   457       H         25.18398000      0.00000000      4.54088000   
   458       O         30.83337000     16.38835000     19.93872000   
   459       C         27.26759000     16.38835000     20.22191000   
   460       H         26.97654000     16.38835000     19.11963000   
   461       C         26.28724000     16.38835000     21.21636000   
   462       H         25.18398000     16.38835000     20.92923000   
   463       O         14.44502000      0.00000000     19.93872000   
   464       C         10.87924000      0.00000000     20.22191000   
   465       H         10.58819000      0.00000000     19.11963000   
   466       C          9.89889000      0.00000000     21.21636000   
   467       H          8.79563000      0.00000000     20.92923000   
   468       O         14.44502000     16.38835000      3.55037000   
   469       C         10.87924000     16.38835000      3.83356000   
   470       H         10.58819000     16.38835000      2.73128000   
   471       C          9.89889000     16.38835000      4.82801000   
   472       H          8.79563000     16.38835000      4.54088000   
   473       O          0.00000000      3.55037000     30.83337000   
   474       C          0.00000000      3.83356000     27.26759000   
   475       H          0.00000000      2.73128000     26.97654000   
   476       C          0.00000000      4.82801000     26.28724000   
   477       H          0.00000000      4.54088000     25.18398000   
   478       O          0.00000000     19.93872000     14.44502000   
   479       C          0.00000000     20.22191000     10.87924000   
   480       H          0.00000000     19.11963000     10.58819000   
   481       C          0.00000000     21.21636000      9.89889000   
   482       H          0.00000000     20.92923000      8.79563000   
   483       O         16.38835000      3.55037000     14.44502000   
   484       C         16.38835000      3.83356000     10.87924000   
   485       H         16.38835000      2.73128000     10.58819000   
   486       C         16.38835000      4.82801000      9.89889000   
   487       H         16.38835000      4.54088000      8.79563000   
   488       O         16.38835000     19.93872000     30.83337000   
   489       C         16.38835000     20.22191000     27.26759000   
   490       H         16.38835000     19.11963000     26.97654000   
   491       C         16.38835000     21.21636000     26.28724000   
   492       H         16.38835000     20.92923000     25.18398000   
   493       O          0.00000000      3.55037000      1.94333000   
   494       C          0.00000000      3.83356000      5.50911000   
   495       H          0.00000000      2.73128000      5.80016000   
   496       C          0.00000000      4.82801000      6.48946000   
   497       H          0.00000000      4.54088000      7.59272000   
   498       O          0.00000000     19.93872000     18.33168000   
   499       C          0.00000000     20.22191000     21.89746000   
   500       H          0.00000000     19.11963000     22.18851000   
   501       C          0.00000000     21.21636000     22.87781000   
   502       H          0.00000000     20.92923000     23.98107000   
   503       O         16.38835000      3.55037000     18.33168000   
   504       C         16.38835000      3.83356000     21.89746000   
   505       H         16.38835000      2.73128000     22.18851000   
   506       C         16.38835000      4.82801000     22.87781000   
   507       H         16.38835000      4.54088000     23.98107000   
   508       O         16.38835000     19.93872000      1.94333000   
   509       C         16.38835000     20.22191000      5.50911000   
   510       H         16.38835000     19.11963000      5.80016000   
   511       C         16.38835000     21.21636000      6.48946000   
   512       H         16.38835000     20.92923000      7.59272000   
   513       O          0.00000000     29.22633000     30.83337000   
   514       C          0.00000000     28.94314000     27.26759000   
   515       H          0.00000000     30.04542000     26.97654000   
   516       C          0.00000000     27.94869000     26.28724000   
   517       H          0.00000000     28.23582000     25.18398000   
   518       O          0.00000000     12.83798000     14.44502000   
   519       C          0.00000000     12.55479000     10.87924000   
   520       H          0.00000000     13.65707000     10.58819000   
   521       C          0.00000000     11.56034000      9.89889000   
   522       H          0.00000000     11.84747000      8.79563000   
   523       O         16.38835000     29.22633000     14.44502000   
   524       C         16.38835000     28.94314000     10.87924000   
   525       H         16.38835000     30.04542000     10.58819000   
   526       C         16.38835000     27.94869000      9.89889000   
   527       H         16.38835000     28.23582000      8.79563000   
   528       O         16.38835000     12.83798000     30.83337000   
   529       C         16.38835000     12.55479000     27.26759000   
   530       H         16.38835000     13.65707000     26.97654000   
   531       C         16.38835000     11.56034000     26.28724000   
   532       H         16.38835000     11.84747000     25.18398000   
   533       O          0.00000000     29.22633000      1.94333000   
   534       C          0.00000000     28.94314000      5.50911000   
   535       H          0.00000000     30.04542000      5.80016000   
   536       C          0.00000000     27.94869000      6.48946000   
   537       H          0.00000000     28.23582000      7.59272000   
   538       O          0.00000000     12.83798000     18.33168000   
   539       C          0.00000000     12.55479000     21.89746000   
   540       H          0.00000000     13.65707000     22.18851000   
   541       C          0.00000000     11.56034000     22.87781000   
   542       H          0.00000000     11.84747000     23.98107000   
   543       O         16.38835000     29.22633000     18.33168000   
   544       C         16.38835000     28.94314000     21.89746000   
   545       H         16.38835000     30.04542000     22.18851000   
   546       C         16.38835000     27.94869000     22.87781000   
   547       H         16.38835000     28.23582000     23.98107000   
   548       O         16.38835000     12.83798000      1.94333000   
   549       C         16.38835000     12.55479000      5.50911000   
   550       H         16.38835000     13.65707000      5.80016000   
   551       C         16.38835000     11.56034000      6.48946000   
   552       H         16.38835000     11.84747000      7.59272000   
   553       O          3.55037000      1.94333000      0.00000000   
   554       C          3.83356000      5.50911000      0.00000000   
   555       H          2.73128000      5.80016000      0.00000000   
   556       C          4.82801000      6.48946000      0.00000000   
   557       H          4.54088000      7.59272000      0.00000000   
   558       O          3.55037000     18.33168000     16.38835000   
   559       C          3.83356000     21.89746000     16.38835000   
   560       H          2.73128000     22.18851000     16.38835000   
   561       C          4.82801000     22.87781000     16.38835000   
   562       H          4.54088000     23.98107000     16.38835000   
   563       O         19.93872000      1.94333000     16.38835000   
   564       C         20.22191000      5.50911000     16.38835000   
   565       H         19.11963000      5.80016000     16.38835000   
   566       C         21.21636000      6.48946000     16.38835000   
   567       H         20.92923000      7.59272000     16.38835000   
   568       O         19.93872000     18.33168000      0.00000000   
   569       C         20.22191000     21.89746000      0.00000000   
   570       H         19.11963000     22.18851000      0.00000000   
   571       C         21.21636000     22.87781000      0.00000000   
   572       H         20.92923000     23.98107000      0.00000000   
   573       O          3.55037000     30.83337000      0.00000000   
   574       C          3.83356000     27.26759000      0.00000000   
   575       H          2.73128000     26.97654000      0.00000000   
   576       C          4.82801000     26.28724000      0.00000000   
   577       H          4.54088000     25.18398000      0.00000000   
   578       O          3.55037000     14.44502000     16.38835000   
   579       C          3.83356000     10.87924000     16.38835000   
   580       H          2.73128000     10.58819000     16.38835000   
   581       C          4.82801000      9.89889000     16.38835000   
   582       H          4.54088000      8.79563000     16.38835000   
   583       O         19.93872000     30.83337000     16.38835000   
   584       C         20.22191000     27.26759000     16.38835000   
   585       H         19.11963000     26.97654000     16.38835000   
   586       C         21.21636000     26.28724000     16.38835000   
   587       H         20.92923000     25.18398000     16.38835000   
   588       O         19.93872000     14.44502000      0.00000000   
   589       C         20.22191000     10.87924000      0.00000000   
   590       H         19.11963000     10.58819000      0.00000000   
   591       C         21.21636000      9.89889000      0.00000000   
   592       H         20.92923000      8.79563000      0.00000000   
   593       O         29.22633000      1.94333000      0.00000000   
   594       C         28.94314000      5.50911000      0.00000000   
   595       H         30.04542000      5.80016000      0.00000000   
   596       C         27.94869000      6.48946000      0.00000000   
   597       H         28.23582000      7.59272000      0.00000000   
   598       O         29.22633000     18.33168000     16.38835000   
   599       C         28.94314000     21.89746000     16.38835000   
   600       H         30.04542000     22.18851000     16.38835000   
   601       C         27.94869000     22.87781000     16.38835000   
   602       H         28.23582000     23.98107000     16.38835000   
   603       O         12.83798000      1.94333000     16.38835000   
   604       C         12.55479000      5.50911000     16.38835000   
   605       H         13.65707000      5.80016000     16.38835000   
   606       C         11.56034000      6.48946000     16.38835000   
   607       H         11.84747000      7.59272000     16.38835000   
   608       O         12.83798000     18.33168000      0.00000000   
   609       C         12.55479000     21.89746000      0.00000000   
   610       H         13.65707000     22.18851000      0.00000000   
   611       C         11.56034000     22.87781000      0.00000000   
   612       H         11.84747000     23.98107000      0.00000000   
   613       O         29.22633000     30.83337000      0.00000000   
   614       C         28.94314000     27.26759000      0.00000000   
   615       H         30.04542000     26.97654000      0.00000000   
   616       C         27.94869000     26.28724000      0.00000000   
   617       H         28.23582000     25.18398000      0.00000000   
   618       O         29.22633000     14.44502000     16.38835000   
   619       C         28.94314000     10.87924000     16.38835000   
   620       H         30.04542000     10.58819000     16.38835000   
   621       C         27.94869000      9.89889000     16.38835000   
   622       H         28.23582000      8.79563000     16.38835000   
   623       O         12.83798000     30.83337000     16.38835000   
   624       C         12.55479000     27.26759000     16.38835000   
   625       H         13.65707000     26.97654000     16.38835000   
   626       C         11.56034000     26.28724000     16.38835000   
   627       H         11.84747000     25.18398000     16.38835000   
   628       O         12.83798000     14.44502000      0.00000000   
   629       C         12.55479000     10.87924000      0.00000000   
   630       H         13.65707000     10.58819000      0.00000000   
   631       C         11.56034000      9.89889000      0.00000000   
   632       H         11.84747000      8.79563000      0.00000000   
   633       C          0.00000000      3.14001000      3.14001000   
   634       C          0.00000000      4.19181000      4.19181000   
   635       C          0.00000000      6.16136000      6.16136000   
   636       C          0.00000000      7.20760000      7.20760000   
   637       C          0.00000000     19.52836000     19.52836000   
   638       C          0.00000000     20.58016000     20.58016000   
   639       C          0.00000000     22.54971000     22.54971000   
   640       C          0.00000000     23.59595000     23.59595000   
   641       C         16.38835000      3.14001000     19.52836000   
   642       C         16.38835000      4.19181000     20.58016000   
   643       C         16.38835000      6.16136000     22.54971000   
   644       C         16.38835000      7.20760000     23.59595000   
   645       C         16.38835000     19.52836000      3.14001000   
   646       C         16.38835000     20.58016000      4.19181000   
   647       C         16.38835000     22.54971000      6.16136000   
   648       C         16.38835000     23.59595000      7.20760000   
   649       C          0.00000000     29.63669000      3.14001000   
   650       C          0.00000000     28.58489000      4.19181000   
   651       C          0.00000000     26.61534000      6.16136000   
   652       C          0.00000000     25.56910000      7.20760000   
   653       C          0.00000000     13.24834000     19.52836000   
   654       C          0.00000000     12.19654000     20.58016000   
   655       C          0.00000000     10.22699000     22.54971000   
   656       C          0.00000000      9.18075000     23.59595000   
   657       C         16.38835000     29.63669000     19.52836000   
   658       C         16.38835000     28.58489000     20.58016000   
   659       C         16.38835000     26.61534000     22.54971000   
   660       C         16.38835000     25.56910000     23.59595000   
   661       C         16.38835000     13.24834000      3.14001000   
   662       C         16.38835000     12.19654000      4.19181000   
   663       C         16.38835000     10.22699000      6.16136000   
   664       C         16.38835000      9.18075000      7.20760000   
   665       C          0.00000000      3.14001000     29.63669000   
   666       C          0.00000000      4.19181000     28.58489000   
   667       C          0.00000000      6.16136000     26.61534000   
   668       C          0.00000000      7.20760000     25.56910000   
   669       C          0.00000000     19.52836000     13.24834000   
   670       C          0.00000000     20.58016000     12.19654000   
   671       C          0.00000000     22.54971000     10.22699000   
   672       C          0.00000000     23.59595000      9.18075000   
   673       C         16.38835000      3.14001000     13.24834000   
   674       C         16.38835000      4.19181000     12.19654000   
   675       C         16.38835000      6.16136000     10.22699000   
   676       C         16.38835000      7.20760000      9.18075000   
   677       C         16.38835000     19.52836000     29.63669000   
   678       C         16.38835000     20.58016000     28.58489000   
   679       C         16.38835000     22.54971000     26.61534000   
   680       C         16.38835000     23.59595000     25.56910000   
   681       C          0.00000000     29.63669000     29.63669000   
   682       C          0.00000000     28.58489000     28.58489000   
   683       C          0.00000000     26.61534000     26.61534000   
   684       C          0.00000000     25.56910000     25.56910000   
   685       C          0.00000000     13.24834000     13.24834000   
   686       C          0.00000000     12.19654000     12.19654000   
   687       C          0.00000000     10.22699000     10.22699000   
   688       C          0.00000000      9.18075000      9.18075000   
   689       C         16.38835000     29.63669000     13.24834000   
   690       C         16.38835000     28.58489000     12.19654000   
   691       C         16.38835000     26.61534000     10.22699000   
   692       C         16.38835000     25.56910000      9.18075000   
   693       C         16.38835000     13.24834000     29.63669000   
   694       C         16.38835000     12.19654000     28.58489000   
   695       C         16.38835000     10.22699000     26.61534000   
   696       C         16.38835000      9.18075000     25.56910000   
   697       C          3.14001000      0.00000000      3.14001000   
   698       C          4.19181000      0.00000000      4.19181000   
   699       C          6.16136000      0.00000000      6.16136000   
   700       C          7.20760000      0.00000000      7.20760000   
   701       C          3.14001000     16.38835000     19.52836000   
   702       C          4.19181000     16.38835000     20.58016000   
   703       C          6.16136000     16.38835000     22.54971000   
   704       C          7.20760000     16.38835000     23.59595000   
   705       C         19.52836000      0.00000000     19.52836000   
   706       C         20.58016000      0.00000000     20.58016000   
   707       C         22.54971000      0.00000000     22.54971000   
   708       C         23.59595000      0.00000000     23.59595000   
   709       C         19.52836000     16.38835000      3.14001000   
   710       C         20.58016000     16.38835000      4.19181000   
   711       C         22.54971000     16.38835000      6.16136000   
   712       C         23.59595000     16.38835000      7.20760000   
   713       C          3.14001000      0.00000000     29.63669000   
   714       C          4.19181000      0.00000000     28.58489000   
   715       C          6.16136000      0.00000000     26.61534000   
   716       C          7.20760000      0.00000000     25.56910000   
   717       C          3.14001000     16.38835000     13.24834000   
   718       C          4.19181000     16.38835000     12.19654000   
   719       C          6.16136000     16.38835000     10.22699000   
   720       C          7.20760000     16.38835000      9.18075000   
   721       C         19.52836000      0.00000000     13.24834000   
   722       C         20.58016000      0.00000000     12.19654000   
   723       C         22.54971000      0.00000000     10.22699000   
   724       C         23.59595000      0.00000000      9.18075000   
   725       C         19.52836000     16.38835000     29.63669000   
   726       C         20.58016000     16.38835000     28.58489000   
   727       C         22.54971000     16.38835000     26.61534000   
   728       C         23.59595000     16.38835000     25.56910000   
   729       C         29.63669000      0.00000000      3.14001000   
   730       C         28.58489000      0.00000000      4.19181000   
   731       C         26.61534000      0.00000000      6.16136000   
   732       C         25.56910000      0.00000000      7.20760000   
   733       C         29.63669000     16.38835000     19.52836000   
   734       C         28.58489000     16.38835000     20.58016000   
   735       C         26.61534000     16.38835000     22.54971000   
   736       C         25.56910000     16.38835000     23.59595000   
   737       C         13.24834000      0.00000000     19.52836000   
   738       C         12.19654000      0.00000000     20.58016000   
   739       C         10.22699000      0.00000000     22.54971000   
   740       C          9.18075000      0.00000000     23.59595000   
   741       C         13.24834000     16.38835000      3.14001000   
   742       C         12.19654000     16.38835000      4.19181000   
   743       C         10.22699000     16.38835000      6.16136000   
   744       C          9.18075000     16.38835000      7.20760000   
   745       C         29.63669000      0.00000000     29.63669000   
   746       C         28.58489000      0.00000000     28.58489000   
   747       C         26.61534000      0.00000000     26.61534000   
   748       C         25.56910000      0.00000000     25.56910000   
   749       C         29.63669000     16.38835000     13.24834000   
   750       C         28.58489000     16.38835000     12.19654000   
   751       C         26.61534000     16.38835000     10.22699000   
   752       C         25.56910000     16.38835000      9.18075000   
   753       C         13.24834000      0.00000000     13.24834000   
   754       C         12.19654000      0.00000000     12.19654000   
   755       C         10.22699000      0.00000000     10.22699000   
   756       C          9.18075000      0.00000000      9.18075000   
   757       C         13.24834000     16.38835000     29.63669000   
   758       C         12.19654000     16.38835000     28.58489000   
   759       C         10.22699000     16.38835000     26.61534000   
   760       C          9.18075000     16.38835000     25.56910000   
   761       C          3.14001000      3.14001000      0.00000000   
   762       C          4.19181000      4.19181000      0.00000000   
   763       C          6.16136000      6.16136000      0.00000000   
   764       C          7.20760000      7.20760000      0.00000000   
   765       C          3.14001000     19.52836000     16.38835000   
   766       C          4.19181000     20.58016000     16.38835000   
   767       C          6.16136000     22.54971000     16.38835000   
   768       C          7.20760000     23.59595000     16.38835000   
   769       C         19.52836000      3.14001000     16.38835000   
   770       C         20.58016000      4.19181000     16.38835000   
   771       C         22.54971000      6.16136000     16.38835000   
   772       C         23.59595000      7.20760000     16.38835000   
   773       C         19.52836000     19.52836000      0.00000000   
   774       C         20.58016000     20.58016000      0.00000000   
   775       C         22.54971000     22.54971000      0.00000000   
   776       C         23.59595000     23.59595000      0.00000000   
   777       C         29.63669000      3.14001000      0.00000000   
   778       C         28.58489000      4.19181000      0.00000000   
   779       C         26.61534000      6.16136000      0.00000000   
   780       C         25.56910000      7.20760000      0.00000000   
   781       C         29.63669000     19.52836000     16.38835000   
   782       C         28.58489000     20.58016000     16.38835000   
   783       C         26.61534000     22.54971000     16.38835000   
   784       C         25.56910000     23.59595000     16.38835000   
   785       C         13.24834000      3.14001000     16.38835000   
   786       C         12.19654000      4.19181000     16.38835000   
   787       C         10.22699000      6.16136000     16.38835000   
   788       C          9.18075000      7.20760000     16.38835000   
   789       C         13.24834000     19.52836000      0.00000000   
   790       C         12.19654000     20.58016000      0.00000000   
   791       C         10.22699000     22.54971000      0.00000000   
   792       C          9.18075000     23.59595000      0.00000000   
   793       C          3.14001000     29.63669000      0.00000000   
   794       C          4.19181000     28.58489000      0.00000000   
   795       C          6.16136000     26.61534000      0.00000000   
   796       C          7.20760000     25.56910000      0.00000000   
   797       C          3.14001000     13.24834000     16.38835000   
   798       C          4.19181000     12.19654000     16.38835000   
   799       C          6.16136000     10.22699000     16.38835000   
   800       C          7.20760000      9.18075000     16.38835000   
   801       C         19.52836000     29.63669000     16.38835000   
   802       C         20.58016000     28.58489000     16.38835000   
   803       C         22.54971000     26.61534000     16.38835000   
   804       C         23.59595000     25.56910000     16.38835000   
   805       C         19.52836000     13.24834000      0.00000000   
   806       C         20.58016000     12.19654000      0.00000000   
   807       C         22.54971000     10.22699000      0.00000000   
   808       C         23.59595000      9.18075000      0.00000000   
   809       C         29.63669000     29.63669000      0.00000000   
   810       C         28.58489000     28.58489000      0.00000000   
   811       C         26.61534000     26.61534000      0.00000000   
   812       C         25.56910000     25.56910000      0.00000000   
   813       C         29.63669000     13.24834000     16.38835000   
   814       C         28.58489000     12.19654000     16.38835000   
   815       C         26.61534000     10.22699000     16.38835000   
   816       C         25.56910000      9.18075000     16.38835000   
   817       C         13.24834000     29.63669000     16.38835000   
   818       C         12.19654000     28.58489000     16.38835000   
   819       C         10.22699000     26.61534000     16.38835000   
   820       C          9.18075000     25.56910000     16.38835000   
   821       C         13.24834000     13.24834000      0.00000000   
   822       C         12.19654000     12.19654000      0.00000000   
   823       C         10.22699000     10.22699000      0.00000000   
   824       C          9.18075000      9.18075000      0.00000000   
   825       H         26.51045000     24.58810000     18.23237000   
   826       H         24.57695000     22.65460000     14.54433000   
   827       H         22.65460000     24.57695000     14.54433000   
   828       H         24.58810000     26.51045000     18.23237000   
   829       H          1.84402000     26.51045000      8.19975000   
   830       H         30.93268000     24.57695000      6.26625000   
   831       H         30.93268000     22.65460000      8.18860000   
   832       H          1.84402000     24.58810000     10.12210000   
   833       H         14.54433000     22.65460000      8.19975000   
   834       H         18.23237000     24.58810000      6.26625000   
   835       H         18.23237000     26.51045000      8.18860000   
   836       H         14.54433000     24.57695000     10.12210000   
   837       H          8.18860000     18.23237000      6.26625000   
   838       H         10.12210000     14.54433000      8.19975000   
   839       H          8.19975000     14.54433000     10.12210000   
   840       H          6.26625000     18.23237000      8.18860000   
   841       H         24.57695000     18.23237000     22.65460000   
   842       H         26.51045000     14.54433000     24.58810000   
   843       H         24.58810000     14.54433000     26.51045000   
   844       H         22.65460000     18.23237000     24.57695000   
   845       H         14.54433000      6.26625000     24.58810000   
   846       H         18.23237000      8.19975000     22.65460000   
   847       H         18.23237000     10.12210000     24.57695000   
   848       H         14.54433000      8.18860000     26.51045000   
   849       H          8.18860000     14.54433000     26.51045000   
   850       H         10.12210000     18.23237000     24.57695000   
   851       H          8.19975000     18.23237000     22.65460000   
   852       H          6.26625000     14.54433000     24.58810000   
   853       H          6.26625000      8.18860000     18.23237000   
   854       H          8.19975000     10.12210000     14.54433000   
   855       H         10.12210000      8.19975000     14.54433000   
   856       H          8.18860000      6.26625000     18.23237000   
   857       H         24.58810000     30.93268000     22.65460000   
   858       H         22.65460000      1.84402000     24.58810000   
   859       H         24.57695000      1.84402000     26.51045000   
   860       H         26.51045000     30.93268000     24.57695000   
   861       H         18.23237000     26.51045000     24.58810000   
   862       H         14.54433000     24.57695000     22.65460000   
   863       H         14.54433000     22.65460000     24.57695000   
   864       H         18.23237000     24.58810000     26.51045000   
   865       H         10.12210000     24.57695000     14.54433000   
   866       H          8.18860000     26.51045000     18.23237000   
   867       H          6.26625000     24.58810000     18.23237000   
   868       H          8.19975000     22.65460000     14.54433000   
   869       H         26.51045000      8.18860000     14.54433000   
   870       H         24.57695000     10.12210000     18.23237000   
   871       H         22.65460000      8.19975000     18.23237000   
   872       H         24.58810000      6.26625000     14.54433000   
   873       H         24.58810000     14.54433000      6.26625000   
   874       H         22.65460000     18.23237000      8.19975000   
   875       H         24.57695000     18.23237000     10.12210000   
   876       H         26.51045000     14.54433000      8.18860000   
   877       H         18.23237000     10.12210000      8.19975000   
   878       H         14.54433000      8.18860000      6.26625000   
   879       H         14.54433000      6.26625000      8.18860000   
   880       H         18.23237000      8.19975000     10.12210000   
   881       H         10.12210000      8.18860000     30.93268000   
   882       H          8.18860000     10.12210000      1.84402000   
   883       H          6.26625000      8.19975000      1.84402000   
   884       H          8.19975000      6.26625000     30.93268000   
   885       H         24.58810000      1.84402000     10.12210000   
   886       H         22.65460000     30.93268000      8.18860000   
   887       H         24.57695000     30.93268000      6.26625000   
   888       H         26.51045000      1.84402000      8.19975000   
   889       H          8.18860000      1.84402000     22.65460000   
   890       H         10.12210000     30.93268000     24.58810000   
   891       H          8.19975000     30.93268000     26.51045000   
   892       H          6.26625000      1.84402000     24.57695000   
   893       H          8.18860000     30.93268000     10.12210000   
   894       H         10.12210000      1.84402000      8.18860000   
   895       H          8.19975000      1.84402000      6.26625000   
   896       H          6.26625000     30.93268000      8.19975000   
   897       H         22.65460000      8.18860000      1.84402000   
   898       H         24.58810000     10.12210000     30.93268000   
   899       H         26.51045000      8.19975000     30.93268000   
   900       H         24.57695000      6.26625000      1.84402000   
   901       H         22.65460000     24.58810000     30.93268000   
   902       H         24.58810000     22.65460000      1.84402000   
   903       H         26.51045000     24.57695000      1.84402000   
   904       H         24.57695000     26.51045000     30.93268000   
   905       H         10.12210000     24.58810000      1.84402000   
   906       H          8.18860000     22.65460000     30.93268000   
   907       H          6.26625000     24.57695000     30.93268000   
   908       H          8.19975000     26.51045000      1.84402000   
   909       H         30.93268000     22.65460000     24.58810000   
   910       H          1.84402000     24.58810000     22.65460000   
   911       H          1.84402000     26.51045000     24.57695000   
   912       H         30.93268000     24.57695000     26.51045000   
   913       H          1.84402000      6.26625000     24.57695000   
   914       H         30.93268000      8.19975000     26.51045000   
   915       H         30.93268000     10.12210000     24.58810000   
   916       H          1.84402000      8.18860000     22.65460000   
   917       H         30.93268000     10.12210000      8.18860000   
   918       H          1.84402000      8.18860000     10.12210000   
   919       H          1.84402000      6.26625000      8.19975000   
   920       H         30.93268000      8.19975000      6.26625000   
   921      Tv         32.77670000      0.00000000      0.00000000   
   922      Tv          0.00000000     32.77670000      0.00000000   
   923      Tv          0.00000000      0.00000000     32.77670000   
 

                   THE SYSTEM IS A SOLID


                UNIT CELL TRANSLATION VECTORS

              X                Y              Z
    T1 =    32.7767000      0.0000000      0.0000000
    T2 =     0.0000000     32.7767000      0.0000000
    T3 =     0.0000000      0.0000000     32.7767000


          CARTESIAN COORDINATES 

    NO.       ATOM           X           Y           Z

     1         C         31.6951     23.5009     24.6350
     2         C         15.3067      7.1125     24.6350
     3         C         15.3067     23.5009      8.2466
     4         C          1.0816     25.6642      8.2466
     5         C         17.4700     25.6642     24.6350
     6         C         17.4700      9.2758      8.2466
     7         C          1.0816      7.1125     24.5301
     8         C         31.6951      9.2758      8.1417
     9         C         24.6350     31.6951     23.5009
    10         C         24.6350     15.3067      7.1125
    11         C         24.6350      1.0816      9.2758
    12         C         24.5301     17.4700     23.5009
    13         C          8.1417      1.0816     23.5009
    14         C          8.1417     17.4700      7.1125
    15         C          8.1417     31.6951      9.2758
    16         C          8.1417     15.3067     25.6642
    17         C         23.5009     24.6350     31.6951
    18         C         25.6642     24.6350     17.4700
    19         C          9.2758     24.6350      1.0816
    20         C          7.1125      8.1417     17.4700
    21         C         23.5009      8.1417      1.0816
    22         C         25.6642      8.1417     15.3067
    23         C          9.2758     24.5301     15.3067
    24         C          9.2758      8.1417     31.6951
    25         C         23.5009     31.6951      8.1417
    26         C          9.2758      1.0816      8.1417
    27         C          9.2758     17.4700     24.5301
    28         C         23.5009      1.0816     24.6350
    29         C         23.5009     17.4700      8.2466
    30         C         25.6642     15.3067     24.6350
    31         C          9.2758     31.6951     24.6350
    32         C          9.2758     15.3067      8.2466
    33         C         31.6951      8.2466     25.6642
    34         C          1.0816     24.6350     23.5009
    35         C         17.4700      8.2466     23.5009
    36         C         17.4700     24.6350      7.1125
    37         C          1.0816      8.1417      9.2758
    38         C         31.6951     24.5301      7.1125
    39         C         15.3067     24.5301     23.5009
    40         C         15.3067      8.1417      7.1125
    41         C         24.6350     23.5009      1.0816
    42         C          8.2466      9.2758     15.3067
    43         C         24.6350      9.2758     31.6951
    44         C         24.5301     23.5009     15.3067
    45         C          8.1417     23.5009     31.6951
    46         C         24.5301      9.2758     17.4700
    47         C          8.1417     25.6642     17.4700
    48         C          8.1417      9.2758      1.0816
    49         C          1.0816     25.6642     24.5301
    50         C         17.4700     25.6642      8.1417
    51         C         17.4700      9.2758     24.5301
    52         C         31.6951     23.5009      8.1417
    53         C         15.3067      7.1125      8.1417
    54         C         15.3067     23.5009     24.5301
    55         C         31.6951      9.2758     24.6350
    56         C          1.0816      7.1125      8.2466
    57         C         24.5301      1.0816     25.6642
    58         C         24.5301     17.4700      9.2758
    59         C         24.5301     31.6951      7.1125
    60         C          8.2466     31.6951     25.6642
    61         C          8.2466     15.3067      9.2758
    62         C         24.6350     15.3067     25.6642
    63         C          8.2466      1.0816      7.1125
    64         C          8.2466     17.4700     23.5009
    65         C         25.6642     24.5301      1.0816
    66         C          7.1125     24.5301     31.6951
    67         C         23.5009     24.5301     15.3067
    68         C         25.6642      8.2466     31.6951
    69         C          9.2758      8.2466     15.3067
    70         C          7.1125      8.2466      1.0816
    71         C          7.1125     24.6350     17.4700
    72         C         23.5009      8.2466     17.4700
    73         C         25.6642      1.0816      8.2466
    74         C          7.1125     31.6951      8.2466
    75         C          7.1125     15.3067     24.6350
    76         C         25.6642     31.6951     24.5301
    77         C         25.6642     15.3067      8.1417
    78         C          7.1125      1.0816     24.5301
    79         C          7.1125     17.4700      8.1417
    80         C         23.5009     17.4700     24.5301
    81         C          1.0816      8.1417     23.5009
    82         C         31.6951     24.5301     25.6642
    83         C         15.3067     24.5301      9.2758
    84         C         15.3067      8.1417     25.6642
    85         C         31.6951      8.2466      7.1125
    86         C          1.0816     24.6350      9.2758
    87         C         17.4700      8.2466      9.2758
    88         C         17.4700     24.6350     25.6642
    89         C         24.5301     25.6642     31.6951
    90         C         24.5301      7.1125      1.0816
    91         C          8.1417      7.1125     17.4700
    92         C          8.2466     25.6642      1.0816
    93         C         24.6350     25.6642     17.4700
    94         C          8.2466      7.1125     31.6951
    95         C          8.2466     23.5009     15.3067
    96         C         24.6350      7.1125     15.3067
    97        Zr          0.0000      0.0000      2.4746
    98        Zr          0.0000     16.3883     18.8630
    99        Zr         16.3883      0.0000     18.8630
   100        Zr         16.3883     16.3883      2.4746
   101        Zr          0.0000      0.0000     30.3021
   102        Zr          0.0000     16.3883     13.9137
   103        Zr         16.3883      0.0000     13.9137
   104        Zr         16.3883     16.3883     30.3021
   105        Zr          2.4746      0.0000      0.0000
   106        Zr          2.4746     16.3883     16.3883
   107        Zr         18.8630      0.0000     16.3883
   108        Zr         18.8630     16.3883      0.0000
   109        Zr         30.3021      0.0000      0.0000
   110        Zr         30.3021     16.3883     16.3883
   111        Zr         13.9137      0.0000     16.3883
   112        Zr         13.9137     16.3883      0.0000
   113        Zr          0.0000      2.4746      0.0000
   114        Zr          0.0000     18.8630     16.3883
   115        Zr         16.3883      2.4746     16.3883
   116        Zr         16.3883     18.8630      0.0000
   117        Zr          0.0000     30.3021      0.0000
   118        Zr          0.0000     13.9137     16.3883
   119        Zr         16.3883     30.3021     16.3883
   120        Zr         16.3883     13.9137      0.0000
   121         O          1.2173      1.2173      1.2173
   122         O          1.2173     17.6057     17.6057
   123         O         17.6057      1.2173     17.6057
   124         O         17.6057     17.6057      1.2173
   125         O         31.5594     31.5594      1.2173
   126         O         31.5594     15.1710     17.6057
   127         O         15.1710     31.5594     17.6057
   128         O         15.1710     15.1710      1.2173
   129         O         31.5594      1.2173     31.5594
   130         O         31.5594     17.6057     15.1710
   131         O         15.1710      1.2173     15.1710
   132         O         15.1710     17.6057     31.5594
   133         O          1.2173     31.5594     31.5594
   134         O          1.2173     15.1710     15.1710
   135         O         17.6057     31.5594     15.1710
   136         O         17.6057     15.1710     31.5594
   137         O          1.2173      1.2173     31.5594
   138         O          1.2173     17.6057     15.1710
   139         O         17.6057      1.2173     15.1710
   140         O         17.6057     17.6057     31.5594
   141         O         31.5594     31.5594     31.5594
   142         O         31.5594     15.1710     15.1710
   143         O         15.1710     31.5594     15.1710
   144         O         15.1710     15.1710     31.5594
   145         O          1.2173     31.5594      1.2173
   146         O          1.2173     15.1710     17.6057
   147         O         17.6057     31.5594     17.6057
   148         O         17.6057     15.1710      1.2173
   149         O         31.5594      1.2173      1.2173
   150         O         31.5594     17.6057     17.6057
   151         O         15.1710      1.2173     17.6057
   152         O         15.1710     17.6057      1.2173
   153         O          0.0000      1.9433      3.5504
   154         C          0.0000      5.5091      3.8336
   155         H          0.0000      5.8002      2.7313
   156         C          0.0000      6.4895      4.8280
   157         H          0.0000      7.5927      4.5409
   158         O          0.0000     18.3317     19.9387
   159         C          0.0000     21.8975     20.2219
   160         H          0.0000     22.1885     19.1196
   161         C          0.0000     22.8778     21.2164
   162         H          0.0000     23.9811     20.9292
   163         O         16.3883      1.9433     19.9387
   164         C         16.3883      5.5091     20.2219
   165         H         16.3883      5.8002     19.1196
   166         C         16.3883      6.4895     21.2164
   167         H         16.3883      7.5927     20.9292
   168         O         16.3883     18.3317      3.5504
   169         C         16.3883     21.8975      3.8336
   170         H         16.3883     22.1885      2.7313
   171         C         16.3883     22.8778      4.8280
   172         H         16.3883     23.9811      4.5409
   173         O          0.0000     30.8334      3.5504
   174         C          0.0000     27.2676      3.8336
   175         H          0.0000     26.9765      2.7313
   176         C          0.0000     26.2872      4.8280
   177         H          0.0000     25.1840      4.5409
   178         O          0.0000     14.4450     19.9387
   179         C          0.0000     10.8792     20.2219
   180         H          0.0000     10.5882     19.1196
   181         C          0.0000      9.8989     21.2164
   182         H          0.0000      8.7956     20.9292
   183         O         16.3883     30.8334     19.9387
   184         C         16.3883     27.2676     20.2219
   185         H         16.3883     26.9765     19.1196
   186         C         16.3883     26.2872     21.2164
   187         H         16.3883     25.1840     20.9292
   188         O         16.3883     14.4450      3.5504
   189         C         16.3883     10.8792      3.8336
   190         H         16.3883     10.5882      2.7313
   191         C         16.3883      9.8989      4.8280
   192         H         16.3883      8.7956      4.5409
   193         O          0.0000      1.9433     29.2263
   194         C          0.0000      5.5091     28.9431
   195         H          0.0000      5.8002     30.0454
   196         C          0.0000      6.4895     27.9487
   197         H          0.0000      7.5927     28.2358
   198         O          0.0000     18.3317     12.8380
   199         C          0.0000     21.8975     12.5548
   200         H          0.0000     22.1885     13.6571
   201         C          0.0000     22.8778     11.5603
   202         H          0.0000     23.9811     11.8475
   203         O         16.3883      1.9433     12.8380
   204         C         16.3883      5.5091     12.5548
   205         H         16.3883      5.8002     13.6571
   206         C         16.3883      6.4895     11.5603
   207         H         16.3883      7.5927     11.8475
   208         O         16.3883     18.3317     29.2263
   209         C         16.3883     21.8975     28.9431
   210         H         16.3883     22.1885     30.0454
   211         C         16.3883     22.8778     27.9487
   212         H         16.3883     23.9811     28.2358
   213         O          0.0000     30.8334     29.2263
   214         C          0.0000     27.2676     28.9431
   215         H          0.0000     26.9765     30.0454
[...]
  415  H   0.81451
  416  C   1.08552   1.08411   1.04813   0.99560
  417  H   0.83679
  418  O   1.80937   1.37093   1.67651   1.80824
  419  C   1.09365   0.98641   0.93636   1.08299
  420  H   0.81401
  421  C   1.08558   1.08441   1.04752   0.99522
  422  H   0.83647
  423  O   1.80886   1.37135   1.67836   1.80686
  424  C   1.09364   0.98617   0.93600   1.08317
  425  H   0.81410
  426  C   1.08557   1.08440   1.04729   0.99511
  427  H   0.83613
  428  O   1.80863   1.37224   1.67749   1.80868
  429  C   1.09358   0.98648   0.93686   1.08299
  430  H   0.81439
  431  C   1.08557   1.08422   1.04763   0.99538
  432  H   0.83650
  433  O   1.80891   1.37132   1.67808   1.80730
  434  C   1.09368   0.98624   0.93591   1.08319
  435  H   0.81389
  436  C   1.08558   1.08440   1.04756   0.99523
  437  H   0.83632
  438  O   1.80921   1.37148   1.67684   1.80822
  439  C   1.09353   0.98649   0.93702   1.08291
  440  H   0.81472
  441  C   1.08558   1.08427   1.04733   0.99532
  442  H   0.83629
  443  O   1.80879   1.37155   1.67810   1.80734
  444  C   1.09364   0.98623   0.93613   1.08316
  445  H   0.81410
  446  C   1.08561   1.08445   1.04721   0.99517
  447  H   0.83608
  448  O   1.80878   1.37188   1.67721   1.80878
  449  C   1.09362   0.98650   0.93665   1.08297
  450  H   0.81416
  451  C   1.08553   1.08417   1.04808   0.99552
  452  H   0.83693
  453  O   1.80881   1.37142   1.67821   1.80700
  454  C   1.09357   0.98649   0.93670   1.08301
  455  H   0.81456
  456  C   1.08552   1.08411   1.04811   0.99562
  457  H   0.83682
  458  O   1.80937   1.37098   1.67659   1.80826
  459  C   1.09365   0.98643   0.93638   1.08301
  460  H   0.81402
  461  C   1.08557   1.08438   1.04768   0.99525
  462  H   0.83646
  463  O   1.80897   1.37082   1.67788   1.80682
  464  C   1.09363   0.98657   0.93644   1.08299
  465  H   0.81424
  466  C   1.08549   1.08408   1.04874   0.99586
  467  H   0.83732
  468  O   1.80887   1.37232   1.67779   1.80897
  469  C   1.09368   0.98634   0.93615   1.08315
  470  H   0.81393
  471  C   1.08561   1.08452   1.04740   0.99517
  472  H   0.83608
  473  O   1.80930   1.67643   1.80817   1.37095
  474  C   1.09360   0.93683   1.08293   0.98653
  475  H   0.81429
  476  C   1.08556   1.04758   0.99532   1.08432
  477  H   0.83660
  478  O   1.80879   1.67748   1.80890   1.37226
  479  C   1.09357   0.93695   1.08297   0.98661
  480  H   0.81451
  481  C   1.08554   1.04804   0.99561   1.08414
  482  H   0.83681
  483  O   1.80927   1.67659   1.80818   1.37100
  484  C   1.09359   0.93683   1.08290   0.98656
  485  H   0.81436
  486  C   1.08556   1.04768   0.99540   1.08426
  487  H   0.83672
  488  O   1.80888   1.67802   1.80691   1.37112
  489  C   1.09361   0.93661   1.08302   0.98654
  490  H   0.81428
  491  C   1.08553   1.04822   0.99563   1.08418
  492  H   0.83689
  493  O   1.80935   1.67677   1.80830   1.37121
  494  C   1.09361   0.93663   1.08295   0.98650
  495  H   0.81430
  496  C   1.08556   1.04790   0.99545   1.08427
  497  H   0.83664
  498  O   1.80879   1.67759   1.80893   1.37228
  499  C   1.09370   0.93591   1.08322   0.98614
  500  H   0.81372
  501  C   1.08564   1.04675   0.99481   1.08463
  502  H   0.83569
  503  O   1.80928   1.67675   1.80820   1.37119
  504  C   1.09357   0.93707   1.08289   0.98665
  505  H   0.81455
  506  C   1.08555   1.04803   0.99563   1.08416
  507  H   0.83684
  508  O   1.80899   1.67764   1.80733   1.37116
  509  C   1.09362   0.93635   1.08300   0.98642
  510  H   0.81420
  511  C   1.08551   1.04809   0.99549   1.08417
  512  H   0.83694
  513  O   1.80935   1.67657   1.80822   1.37105
  514  C   1.09357   0.93697   1.08285   0.98666
  515  H   0.81450
  516  C   1.08552   1.04833   0.99574   1.08409
  517  H   0.83711
  518  O   1.80881   1.67728   1.80883   1.37204
  519  C   1.09362   0.93664   1.08301   0.98650
  520  H   0.81417
  521  C   1.08557   1.04771   0.99542   1.08430
  522  H   0.83662
  523  O   1.80937   1.67662   1.80828   1.37103
  524  C   1.09366   0.93634   1.08304   0.98639
  525  H   0.81396
  526  C   1.08560   1.04745   0.99521   1.08446
  527  H   0.83633
  528  O   1.80877   1.67877   1.80699   1.37182
  529  C   1.09366   0.93573   1.08327   0.98598
  530  H   0.81394
  531  C   1.08562   1.04679   0.99489   1.08455
  532  H   0.83568
  533  O   1.80926   1.67656   1.80816   1.37112
  534  C   1.09358   0.93695   1.08293   0.98657
  535  H   0.81450
  536  C   1.08558   1.04753   0.99536   1.08431
  537  H   0.83644
  538  O   1.80888   1.67716   1.80884   1.37183
  539  C   1.09362   0.93681   1.08294   0.98667
  540  H   0.81420
  541  C   1.08551   1.04840   0.99572   1.08412
  542  H   0.83722
  543  O   1.80928   1.67652   1.80818   1.37112
  544  C   1.09355   0.93705   1.08283   0.98661
  545  H   0.81461
  546  C   1.08553   1.04797   0.99553   1.08416
  547  H   0.83687
  548  O   1.80894   1.67811   1.80736   1.37148
  549  C   1.09365   0.93612   1.08315   0.98634
  550  H   0.81417
  551  C   1.08556   1.04797   0.99544   1.08432
  552  H   0.83640
  553  O   1.80885   1.80895   1.37225   1.67750
  554  C   1.09367   1.08317   0.98629   0.93620
  555  H   0.81397
  556  C   1.08562   0.99494   1.08456   1.04692
  557  H   0.83583
  558  O   1.80897   1.80715   1.37095   1.67767
  559  C   1.09364   1.08300   0.98649   0.93627
  560  H   0.81410
  561  C   1.08550   0.99561   1.08418   1.04842
  562  H   0.83711
  563  O   1.80875   1.80879   1.37178   1.67674
  564  C   1.09356   1.08288   0.98674   0.93724
  565  H   0.81457
  566  C   1.08551   0.99578   1.08400   1.04839
  567  H   0.83720
  568  O   1.80944   1.80839   1.37110   1.67693
  569  C   1.09359   1.08285   0.98681   0.93708
  570  H   0.81447
  571  C   1.08551   0.99595   1.08409   1.04873
  572  H   0.83735
  573  O   1.80868   1.80896   1.37262   1.67785
  574  C   1.09363   1.08314   0.98623   0.93633
  575  H   0.81418
  576  C   1.08562   0.99510   1.08443   1.04705
  577  H   0.83590
  578  O   1.80890   1.80699   1.37108   1.67792
  579  C   1.09360   1.08300   0.98657   0.93668
  580  H   0.81434
  581  C   1.08551   0.99586   1.08404   1.04857
  582  H   0.83724
  583  O   1.80899   1.80897   1.37226   1.67740
  584  C   1.09362   1.08306   0.98645   0.93651
  585  H   0.81423
  586  C   1.08557   0.99531   1.08430   1.04748
  587  H   0.83647
  588  O   1.80922   1.80811   1.37103   1.67635
  589  C   1.09365   1.08305   0.98612   0.93608
  590  H   0.81390
  591  C   1.08561   0.99471   1.08457   1.04672
  592  H   0.83583
  593  O   1.80885   1.80878   1.37176   1.67706
  594  C   1.09359   1.08286   0.98674   0.93698
  595  H   0.81433
  596  C   1.08549   0.99598   1.08396   1.04884
  597  H   0.83762
  598  O   1.80885   1.80735   1.37167   1.67840
  599  C   1.09370   1.08332   0.98602   0.93567
  600  H   0.81382
  601  C   1.08565   0.99486   1.08462   1.04671
  602  H   0.83552
  603  O   1.80885   1.80906   1.37264   1.67819
  604  C   1.09369   1.08323   0.98614   0.93586
  605  H   0.81376
  606  C   1.08564   0.99485   1.08466   1.04672
  607  H   0.83570
  608  O   1.80902   1.80802   1.37105   1.67634
  609  C   1.09353   1.08287   0.98640   0.93703
  610  H   0.81460
  611  C   1.08555   0.99522   1.08418   1.04730
  612  H   0.83648
  613  O   1.80889   1.80884   1.37184   1.67718
  614  C   1.09365   1.08298   0.98663   0.93665
  615  H   0.81413
  616  C   1.08555   0.99557   1.08428   1.04815
  617  H   0.83687
  618  O   1.80876   1.80709   1.37170   1.67845
  619  C   1.09360   1.08315   0.98620   0.93623
  620  H   0.81431
  621  C   1.08559   0.99505   1.08442   1.04704
  622  H   0.83594
  623  O   1.80871   1.80874   1.37174   1.67714
  624  C   1.09363   1.08294   0.98661   0.93678
  625  H   0.81412
  626  C   1.08552   0.99563   1.08417   1.04834
  627  H   0.83711
  628  O   1.80961   1.80834   1.37108   1.67662
  629  C   1.09360   1.08286   0.98691   0.93700
  630  H   0.81459
  631  C   1.08552   0.99605   1.08409   1.04888
  632  H   0.83731
  633  C   1.07252   0.62409   0.76936   0.76968
  634  C   1.07355   1.04824   1.01597   1.01597
  635  C   1.06018   0.96856   0.98355   0.98356
  636  C   1.10893   0.97675   0.96914   0.96948
  637  C   1.07249   0.62412   0.76973   0.76924
  638  C   1.07359   1.04801   1.01563   1.01638
  639  C   1.06016   0.96882   0.98400   0.98312
  640  C   1.10896   0.97642   0.96895   0.96922
  641  C   1.07249   0.62393   0.76922   0.76964
  642  C   1.07355   1.04825   1.01609   1.01586
  643  C   1.06019   0.96857   0.98343   0.98372
  644  C   1.10891   0.97635   0.96888   0.96900
  645  C   1.07295   0.62385   0.76994   0.77010
  646  C   1.07329   1.04883   1.01556   1.01541
  647  C   1.06015   0.96873   0.98341   0.98363
  648  C   1.10895   0.97642   0.96919   0.96925
  649  C   1.07251   0.62399   0.76924   0.76968
  650  C   1.07355   1.04818   1.01599   1.01594
  651  C   1.06019   0.96872   0.98361   0.98358
  652  C   1.10888   0.97613   0.96882   0.96876
  653  C   1.07240   0.62437   0.76965   0.76929
  654  C   1.07367   1.04743   1.01617   1.01595
  655  C   1.06011   0.96928   0.98338   0.98373
  656  C   1.10886   0.97584   0.96872   0.96884
  657  C   1.07255   0.62407   0.76931   0.76974
  658  C   1.07355   1.04813   1.01610   1.01579
  659  C   1.06012   0.96905   0.98336   0.98369
  660  C   1.10895   0.97622   0.96903   0.96904
  661  C   1.07317   0.62349   0.77018   0.77020
  662  C   1.07306   1.05016   1.01530   1.01527
  663  C   1.06028   0.96745   0.98349   0.98355
  664  C   1.10885   0.97720   0.96937   0.96975
  665  C   1.07243   0.62433   0.76928   0.76967
  666  C   1.07367   1.04749   1.01608   1.01605
  667  C   1.06008   0.96942   0.98355   0.98349
  668  C   1.10887   0.97570   0.96877   0.96866
  669  C   1.07261   0.62391   0.76974   0.76937
  670  C   1.07349   1.04857   1.01602   1.01579
  671  C   1.06018   0.96857   0.98335   0.98371
  672  C   1.10886   0.97641   0.96899   0.96914
  673  C   1.07245   0.62419   0.76926   0.76965
  674  C   1.07363   1.04771   1.01607   1.01597
  675  C   1.06013   0.96923   0.98359   0.98359
  676  C   1.10906   0.97614   0.96916   0.96868
  677  C   1.07296   0.62390   0.77003   0.77005
  678  C   1.07326   1.04899   1.01557   1.01534
  679  C   1.06023   0.96822   0.98344   0.98372
  680  C   1.10888   0.97651   0.96904   0.96914
  681  C   1.07250   0.62411   0.76929   0.76972
  682  C   1.07356   1.04815   1.01613   1.01582
  683  C   1.06017   0.96865   0.98337   0.98374
  684  C   1.10894   0.97667   0.96938   0.96915
  685  C   1.07245   0.62416   0.76963   0.76928
  686  C   1.07361   1.04786   1.01599   1.01606
  687  C   1.06015   0.96892   0.98361   0.98351
  688  C   1.10898   0.97639   0.96932   0.96884
  689  C   1.07242   0.62438   0.76934   0.76964
  690  C   1.07365   1.04764   1.01591   1.01622
  691  C   1.06015   0.96892   0.98379   0.98334
  692  C   1.10895   0.97631   0.96908   0.96900
  693  C   1.07332   0.62333   0.77040   0.77018
  694  C   1.07296   1.05042   1.01488   1.01529
  695  C   1.06027   0.96780   0.98380   0.98329
  696  C   1.10884   0.97644   0.96901   0.96904
  697  C   1.07301   0.77007   0.62373   0.77009
  698  C   1.07321   1.01554   1.04930   1.01529
  699  C   1.06023   0.98344   0.96815   0.98372
  700  C   1.10891   0.96916   0.97656   0.96912
  701  C   1.07268   0.76974   0.62367   0.76934
  702  C   1.07342   1.01577   1.04898   1.01587
  703  C   1.06020   0.98354   0.96835   0.98351
  704  C   1.10888   0.96889   0.97651   0.96926
  705  C   1.07308   0.77002   0.62349   0.77009
  706  C   1.07314   1.01543   1.04968   1.01524
  707  C   1.06027   0.98344   0.96797   0.98376
  708  C   1.10893   0.96883   0.97663   0.96938
  709  C   1.07242   0.76928   0.62438   0.76966
  710  C   1.07368   1.01611   1.04757   1.01612
  711  C   1.06010   0.98355   0.96911   0.98345
  712  C   1.10895   0.96929   0.97647   0.96924
  713  C   1.07296   0.77009   0.62403   0.77012
  714  C   1.07330   1.01568   1.04868   1.01525
  715  C   1.06015   0.98330   0.96883   0.98379
  716  C   1.10903   0.96945   0.97630   0.96882
  717  C   1.07246   0.76970   0.62414   0.76923
  718  C   1.07360   1.01565   1.04799   1.01641
  719  C   1.06016   0.98401   0.96876   0.98311
  720  C   1.10898   0.96901   0.97652   0.96928
  721  C   1.07301   0.76993   0.62351   0.77003
  722  C   1.07320   1.01553   1.04949   1.01533
  723  C   1.06025   0.98346   0.96809   0.98374
  724  C   1.10888   0.96887   0.97632   0.96888
  725  C   1.07250   0.76942   0.62423   0.76966
  726  C   1.07359   1.01591   1.04791   1.01601
  727  C   1.06013   0.98358   0.96903   0.98349
  728  C   1.10896   0.96870   0.97625   0.96942
  729  C   1.07321   0.77021   0.62341   0.77016
  730  C   1.07306   1.01502   1.05008   1.01544
  731  C   1.06025   0.98381   0.96796   0.98327
  732  C   1.10886   0.96916   0.97656   0.96911
  733  C   1.07240   0.76963   0.62434   0.76930
  734  C   1.07366   1.01621   1.04759   1.01596
  735  C   1.06014   0.98342   0.96896   0.98370
  736  C   1.10894   0.96951   0.97643   0.96880
  737  C   1.07309   0.77030   0.62396   0.77018
  738  C   1.07318   1.01510   1.04929   1.01557
  739  C   1.06021   0.98380   0.96819   0.98326
  740  C   1.10893   0.96906   0.97673   0.96970
  741  C   1.07256   0.76930   0.62405   0.76982
  742  C   1.07351   1.01609   1.04838   1.01573
  743  C   1.06019   0.98335   0.96854   0.98377
  744  C   1.10895   0.96943   0.97675   0.96919
  745  C   1.07320   0.77020   0.62348   0.77019
  746  C   1.07307   1.01509   1.05008   1.01541
  747  C   1.06026   0.98376   0.96779   0.98328
  748  C   1.10891   0.96949   0.97678   0.96904
  749  C   1.07241   0.76966   0.62438   0.76931
  750  C   1.07366   1.01617   1.04749   1.01593
  751  C   1.06013   0.98339   0.96917   0.98376
  752  C   1.10896   0.96890   0.97613   0.96901
  753  C   1.07325   0.77029   0.62355   0.77026
  754  C   1.07305   1.01526   1.05002   1.01512
  755  C   1.06022   0.98344   0.96811   0.98360
  756  C   1.10891   0.96909   0.97635   0.96899
  757  C   1.07243   0.76913   0.62390   0.76952
  758  C   1.07358   1.01609   1.04812   1.01596
  759  C   1.06021   0.98359   0.96850   0.98364
  760  C   1.10889   0.96922   0.97653   0.96878
  761  C   1.07258   0.76976   0.76937   0.62405
  762  C   1.07354   1.01571   1.01616   1.04828
  763  C   1.06014   0.98381   0.98325   0.96890
  764  C   1.10901   0.96902   0.96919   0.97639
  765  C   1.07298   0.77006   0.77016   0.62397
  766  C   1.07326   1.01555   1.01527   1.04879
  767  C   1.06016   0.98339   0.98371   0.96874
  768  C   1.10896   0.96924   0.96918   0.97639
  769  C   1.07246   0.76963   0.76934   0.62435
  770  C   1.07365   1.01626   1.01595   1.04777
  771  C   1.06019   0.98340   0.98386   0.96872
  772  C   1.10891   0.96884   0.96895   0.97632
  773  C   1.07253   0.76949   0.76975   0.62425
  774  C   1.07356   1.01622   1.01566   1.04807
  775  C   1.06014   0.98319   0.98384   0.96881
  776  C   1.10894   0.96911   0.96917   0.97639
  777  C   1.07236   0.76959   0.76927   0.62439
  778  C   1.07369   1.01630   1.01592   1.04742
  779  C   1.06013   0.98328   0.98382   0.96901
  780  C   1.10894   0.96946   0.96894   0.97647
  781  C   1.07312   0.77016   0.77006   0.62349
  782  C   1.07311   1.01503   1.01567   1.04996
  783  C   1.06028   0.98394   0.98315   0.96760
  784  C   1.10880   0.96923   0.96920   0.97679
  785  C   1.07259   0.76983   0.76925   0.62374
  786  C   1.07346   1.01551   1.01611   1.04849
  787  C   1.06014   0.98387   0.98318   0.96899
  788  C   1.10891   0.96862   0.96888   0.97585
  789  C   1.07253   0.76927   0.76965   0.62412
  790  C   1.07360   1.01600   1.01604   1.04802
  791  C   1.06016   0.98364   0.98353   0.96886
  792  C   1.10900   0.96917   0.96902   0.97653
  793  C   1.07262   0.76976   0.76923   0.62374
  794  C   1.07344   1.01565   1.01612   1.04895
  795  C   1.06025   0.98382   0.98331   0.96791
  796  C   1.10888   0.96937   0.96938   0.97707
  797  C   1.07305   0.77011   0.77016   0.62382
  798  C   1.07320   1.01561   1.01518   1.04934
  799  C   1.06023   0.98327   0.98385   0.96808
  800  C   1.10882   0.96910   0.96892   0.97639
  801  C   1.07264   0.76972   0.76948   0.62384
  802  C   1.07346   1.01576   1.01585   1.04857
  803  C   1.06017   0.98357   0.98356   0.96887
  804  C   1.10895   0.96869   0.96878   0.97596
  805  C   1.07239   0.76922   0.76959   0.62429
  806  C   1.07370   1.01579   1.01646   1.04742
  807  C   1.06008   0.98395   0.98309   0.96937
  808  C   1.10898   0.96879   0.96929   0.97614
  809  C   1.07240   0.76963   0.76929   0.62433
  810  C   1.07366   1.01609   1.01601   1.04755
  811  C   1.06013   0.98354   0.98361   0.96910
  812  C   1.10897   0.96918   0.96904   0.97635
  813  C   1.07327   0.77022   0.77019   0.62329
  814  C   1.07302   1.01512   1.01520   1.05025
  815  C   1.06023   0.98358   0.98343   0.96804
  816  C   1.10885   0.96912   0.96904   0.97643
  817  C   1.07229   0.76961   0.76915   0.62457
  818  C   1.07378   1.01630   1.01619   1.04703
  819  C   1.06008   0.98345   0.98360   0.96931
  820  C   1.10900   0.96921   0.96918   0.97637
  821  C   1.07254   0.76923   0.76982   0.62380
  822  C   1.07345   1.01612   1.01557   1.04870
  823  C   1.06025   0.98327   0.98391   0.96805
  824  C   1.10890   0.96945   0.96918   0.97691
  825  H   0.83500
  826  H   0.83578
  827  H   0.83485
  828  H   0.83565
  829  H   0.83588
  830  H   0.83579
  831  H   0.83491
  832  H   0.83519
  833  H   0.83451
  834  H   0.83474
  835  H   0.83544
  836  H   0.83555
  837  H   0.83414
  838  H   0.83500
  839  H   0.83582
  840  H   0.83411
  841  H   0.83382
  842  H   0.83643
  843  H   0.83636
  844  H   0.83377
  845  H   0.83498
  846  H   0.83574
  847  H   0.83486
  848  H   0.83573
  849  H   0.83444
  850  H   0.83627
  851  H   0.83539
  852  H   0.83443
  853  H   0.83617
  854  H   0.83551
  855  H   0.83453
  856  H   0.83618
  857  H   0.83610
  858  H   0.83400
  859  H   0.83417
  860  H   0.83508
  861  H   0.83475
  862  H   0.83477
  863  H   0.83543
  864  H   0.83578
  865  H   0.83536
  866  H   0.83461
  867  H   0.83534
  868  H   0.83445
  869  H   0.83498
  870  H   0.83477
  871  H   0.83576
  872  H   0.83581
  873  H   0.83470
  874  H   0.83472
  875  H   0.83556
  876  H   0.83535
  877  H   0.83416
  878  H   0.83508
  879  H   0.83589
  880  H   0.83385
  881  H   0.83588
  882  H   0.83424
  883  H   0.83417
  884  H   0.83488
  885  H   0.83563
  886  H   0.83576
  887  H   0.83489
  888  H   0.83488
  889  H   0.83617
  890  H   0.83361
  891  H   0.83348
  892  H   0.83604
  893  H   0.83459
  894  H   0.83559
  895  H   0.83474
  896  H   0.83553
  897  H   0.83383
  898  H   0.83621
  899  H   0.83623
  900  H   0.83400
  901  H   0.83541
  902  H   0.83469
  903  H   0.83552
  904  H   0.83458
  905  H   0.83482
  906  H   0.83436
  907  H   0.83468
  908  H   0.83477
  909  H   0.83415
  910  H   0.83597
  911  H   0.83507
  912  H   0.83434
  913  H   0.83613
  914  H   0.83577
  915  H   0.83592
  916  H   0.83602
  917  H   0.83594
  918  H   0.83406
  919  H   0.83426
  920  H   0.83508

 **********************
 *                    *
 * JOB ENDED NORMALLY *
 *                    *
 **********************



 TOTAL JOB TIME:          1782.60 SECONDS

 == MOPAC DONE ==
