 *******************************************************************************
 ** Site#: 9602  E-mail support:    MrMOPAC@ATT.net    Version 18.053W 64BITS **
 *******************************************************************************
 ** Cite this program as: MOPAC2016, Version: 18.053W, James J. P. Stewart,   **
 ** Stewart Computational Chemistry, web: HTTP://OpenMOPAC.net. Days left: 174**
 *******************************************************************************
 **                                                                           **
 **                                MOPAC2016                                  **
 **                                                                           **
 *******************************************************************************

                              PM7 CALCULATION RESULTS


 *******************************************************************************
 *  CALCULATION DONE:                                Thu Feb 22 16:44:18 2018  *
 *  SYMMETRY   - SYMMETRY CONDITIONS TO BE IMPOSED
 *  EPS= 78.40 - USE ANDREAS KLAMT'S COSMO IMPLICIT SOLVATION MODEL
 *  STEP       - STEP-SIZE IN PATH =   0.050
 *  POINT      - NUMBER OF POINTS IN PATH = 10
 *  T=         - A TIME OF 172800.0 SECONDS REQUESTED
 *  DUMP=N     - RESTART FILE WRITTEN EVERY  7200.000 SECONDS
 *  HTML       - WRITE HTML SCRIPT TO GENERATE ANIMATION USING JSMOL
 *             - TO DISPLAY IN PDB FORMAT, ADD "PDBOUT"
 *  HTML(NORES)- SUPPRESS LIST OF RESIDUES IN HTML FILE
 *******************************************************************************



                    PARAMETER DEPENDENCE DATA

        REFERENCE ATOM      FUNCTION NO.    DEPENDENT ATOM(S)
           11                  1              23

             DESCRIPTIONS OF THE FUNCTIONS USED
   1      BOND LENGTH    IS SET EQUAL TO THE REFERENCE BOND LENGTH   
 
 eps=78.4 HTML(nores) symmetry  step=0.05 points=10
 Search for the transition state for the exemplar intermediate <=> product using a symmetry-defined dummy atom

  ATOM               CHEMICAL                 BOND LENGTH      BOND ANGLE     TWIST ANGLE 
 NUMBER               SYMBOL                  (ANGSTROMS)      (DEGREES)       (DEGREES) 
   (I)                                           NA:I           NB:NA:I       NC:NB:NA:I       NA    NB    NC 
     1       O(HETATM    1  O   HET A   1)   -1.92855612  *   -0.7583076  *   -0.2496616  *
     2       C(HETATM    2  C   HET B   2)    1.80894420  *   -1.1153332  *    0.0050757  *
     3       C(HETATM    3  C   HET C   1)   -1.98966483  *    0.4410587  *    0.0010132  *
     4       C(HETATM    4  C1  HET D   2)    0.81392136  *    0.5329764  *    1.4470062  *
     5       N(HETATM    5  N   HET D   2)    1.16788615  *   -0.7865787  *    1.1953957  *
     6       C(HETATM    6  C2  HET D   2)    1.11834047  *    1.5234048  *    0.5687942  *
     7       C(HETATM    7  C3  HET D   2)    1.66432925  *    1.2141708  *   -0.7520805  *
     8       C(HETATM    8  C4  HET D   2)    2.13419040  *   -0.1634813  *   -0.9044412  *
     9       H(HETATM    9  H   HET E   1)   -2.43083388  *    0.7389968  *    0.9652548  *
    10       C(HETATM   10  C   HET F   2)    0.58185638  *   -1.8481640  *    2.0156284  *
    11      XX(HETATM   11 XX   HET K   1)    1.39473512  *  103.9574041  *   99.7119483  *     7     6     4
    12       H(HETATM   11 1H1  HET K   1)   -0.25000000  +  180.0000000       0.0000000       11     7     6
    13       H(HETATM   12 2H1  HET K   1)   -0.64482114  *    0.1534795  *   -2.3431653  *
    14       H(HETATM   13 3H1  HET K   1)   -0.61480900  *    1.9317825  *   -2.7878373  *
    15       H(HETATM   14  H2  HET K   1)   -1.79466719  *    2.4904071  *   -0.6454156  *
    16       H(HETATM   15  H1  HET D   2)    0.33448968  *    0.7232801  *    2.4150905  *
    17       H(HETATM   16  H2  HET D   2)    0.92669549  *    2.5642607  *    0.8059299  *
    18       H(HETATM   17  H3  HET D   2)    2.29004938  *    1.9896576  *   -1.2097163  *
    19       H(HETATM   18  H4  HET D   2)    2.72454739  *   -0.3998536  *   -1.7834026  *
    20       H(HETATM   19 1H   HET F   2)    0.63129878  *   -1.5848040  *    3.0884999  *
    21       H(HETATM   20 2H   HET F   2)    1.12677711  *   -2.8006099  *    1.8823074  *
    22       H(HETATM   21 3H   HET F   2)   -0.47862784  *   -2.0213981  *    1.7495109  *
    23       C(HETATM   22  C1  HET K   1)    1.39473512     157.4568170  *  -35.9377026  *    11     7     6
    24       C(HETATM   23  C2  HET K   1)   -1.54401765  *    1.4658193  *   -0.9013172  *
    25       H(HETATM   24  H   HET B   2)    2.07446105  *   -2.1721104  *   -0.1183151  *
 

 General Reference for PM7:
 "Optimization of Parameters for Semiempirical Methods VI: More Modifications to the 
 NDDO Approximations and Re-optimization of Parameters", J. J. P. Stewart, J. Mol. Mod., 1:32, 19 (2013)
 http://www.springerlink.com/openurl.asp?genre=article&id=doi:10.1007/s00894-012-1667-x

           Empirical Formula: C9 H13 N O  =    24 atoms



      MOLECULAR POINT GROUP   :   C1  


      RHF CALCULATION, NO. OF DOUBLY OCCUPIED LEVELS = 30

  ABOUT TO ENTER EF FROM PATHK

          Geometry optimization using EF

          DIAGONAL MATRIX USED AS START HESSIAN

 CYCLE:     1 TIME:   0.031 TIME LEFT:  2.00D  GRAD.:   224.819 HEAT:  20.19025
 CYCLE:     2 TIME:   0.094 TIME LEFT:  2.00D  GRAD.:   231.349 HEAT:  19.05180
 CYCLE:     3 TIME:   0.031 TIME LEFT:  2.00D  GRAD.:   112.350 HEAT:  17.28012
 CYCLE:     4 TIME:   0.016 TIME LEFT:  2.00D  GRAD.:   118.600 HEAT:  16.02603
 CYCLE:     5 TIME:   0.016 TIME LEFT:  2.00D  GRAD.:   177.382 HEAT:  15.24294
 CYCLE:     6 TIME:   0.016 TIME LEFT:  2.00D  GRAD.:    33.412 HEAT:  14.45463
 CYCLE:     7 TIME:   0.047 TIME LEFT:  2.00D  GRAD.:    58.763 HEAT:  14.32232
 CYCLE:     8 TIME:   0.031 TIME LEFT:  2.00D  GRAD.:    18.201 HEAT:  13.99744
 CYCLE:     9 TIME:   0.016 TIME LEFT:  2.00D  GRAD.:    31.382 HEAT:  13.76957
 CYCLE:    10 TIME:   0.031 TIME LEFT:  2.00D  GRAD.:    41.755 HEAT:  13.56373
 CYCLE:    11 TIME:   0.016 TIME LEFT:  2.00D  GRAD.:    36.387 HEAT:  13.45064
 CYCLE:    12 TIME:   0.047 TIME LEFT:  2.00D  GRAD.:    39.513 HEAT:  13.25026
 CYCLE:    13 TIME:   0.031 TIME LEFT:  2.00D  GRAD.:    23.564 HEAT:  13.11743
 CYCLE:    14 TIME:   0.031 TIME LEFT:  2.00D  GRAD.:    18.630 HEAT:  13.03069
 CYCLE:    15 TIME:   0.016 TIME LEFT:  2.00D  GRAD.:    20.681 HEAT:  12.90211
 CYCLE:    16 TIME:   0.031 TIME LEFT:  2.00D  GRAD.:    29.429 HEAT:  12.79336
 CYCLE:    17 TIME:   0.012 TIME LEFT:  2.00D  GRAD.:    36.979 HEAT:  12.72423
 CYCLE:    18 TIME:   0.020 TIME LEFT:  2.00D  GRAD.:    35.873 HEAT:  12.61754
 CYCLE:    19 TIME:   0.047 TIME LEFT:  2.00D  GRAD.:    30.634 HEAT:  12.51300
 CYCLE:    20 TIME:   0.012 TIME LEFT:  2.00D  GRAD.:    21.583 HEAT:  12.47698
 CYCLE:    21 TIME:   0.035 TIME LEFT:  2.00D  GRAD.:    31.289 HEAT:  12.46562
 CYCLE:    22 TIME:   0.012 TIME LEFT:  2.00D  GRAD.:    27.620 HEAT:  12.36136
 CYCLE:    23 TIME:   0.031 TIME LEFT:  2.00D  GRAD.:    29.963 HEAT:  12.34948
 CYCLE:    24 TIME:   0.035 TIME LEFT:  2.00D  GRAD.:    13.698 HEAT:  12.28599
 CYCLE:    25 TIME:   0.012 TIME LEFT:  2.00D  GRAD.:    36.052 HEAT:  12.25810
 CYCLE:    26 TIME:   0.020 TIME LEFT:  2.00D  GRAD.:    14.001 HEAT:  12.12944
 CYCLE:    27 TIME:   0.012 TIME LEFT:  2.00D  GRAD.:    34.793 HEAT:  12.01522
 CYCLE:    28 TIME:   0.035 TIME LEFT:  2.00D  GRAD.:    21.044 HEAT:  11.84912
 CYCLE:    29 TIME:   0.012 TIME LEFT:  2.00D  GRAD.:    28.084 HEAT:  11.58062
 CYCLE:    30 TIME:   0.020 TIME LEFT:  2.00D  GRAD.:    19.359 HEAT:  11.32857
 CYCLE:    31 TIME:   0.027 TIME LEFT:  2.00D  GRAD.:    15.130 HEAT:  11.27985
 CYCLE:    32 TIME:   0.031 TIME LEFT:  2.00D  GRAD.:    11.265 HEAT:  11.18637
 CYCLE:    33 TIME:   0.016 TIME LEFT:  2.00D  GRAD.:    15.764 HEAT:  11.09195
 CYCLE:    34 TIME:   0.031 TIME LEFT:  2.00D  GRAD.:    11.211 HEAT:  11.01389
 CYCLE:    35 TIME:   0.078 TIME LEFT:  2.00D  GRAD.:     4.951 HEAT:  10.98404
 CYCLE:    36 TIME:   0.078 TIME LEFT:  2.00D  GRAD.:     4.235 HEAT:  10.97544
 CYCLE:    37 TIME:   0.172 TIME LEFT:  2.00D  GRAD.:     4.157 HEAT:  10.97402

     TRUST RADIUS NOW LESS THAN  0.00010 OPTIMIZATION TERMINATING
      THE GEOMETRY MAY NOT BE COMPLETELY OPTIMIZED
      (TO CONTINUE, ADD 'LET DDMIN=0.0' TO THE KEYWORD LINE)

          VARIABLE        FUNCTION
 :        -0.25000       10.974016
 eps=78.4 HTML(nores) symmetry  step=0.05 points=10
 Search for the transition state for the exemplar intermediate <=> product using a symmetry-defined dummy atom

  O(HETATM    1  O   HET A   1)  -2.09270139 +1   -0.7263977 +1   -0.4117659 +1
  C(HETATM    2  C   HET B   2)   1.94099671 +1   -1.1356431 +1    0.1124782 +1
  C(HETATM    3  C   HET C   1)  -2.08226256 +1    0.4484584 +1   -0.0971201 +1
  C(HETATM    4  C1  HET D   2)   0.97475072 +1    0.5339078 +1    1.5647951 +1
  N(HETATM    5  N   HET D   2)   1.44954282 +1   -0.7920448 +1    1.3981765 +1
  C(HETATM    6  C2  HET D   2)   1.14658883 +1    1.4851662 +1    0.6308921 +1
  C(HETATM    7  C3  HET D   2)   1.63854699 +1    1.1674420 +1   -0.7363881 +1
  C(HETATM    8  C4  HET D   2)   2.12189794 +1   -0.2311582 +1   -0.8649132 +1
  H(HETATM    9  H   HET E   1)  -2.36548558 +1    0.7341733 +1    0.9266924 +1
  C(HETATM   10  C   HET F   2)   0.58406097 +1   -1.8214531 +1    2.0077558 +1
 XX(HETATM   11 XX   HET K   1)   1.48415736 +1  104.6779703 +1  106.6734303 +1     7     6     4
  H(HETATM   11 1H1  HET K   1)  -0.25000000 -1  180.0000000 +0    0.0000000 +0    11     7     6
  H(HETATM   12 2H1  HET K   1)  -0.69706190 +1    0.2297015 +1   -2.4366856 +1
  H(HETATM   13 3H1  HET K   1)  -0.64656694 +1    2.0125149 +1   -2.8320495 +1
  H(HETATM   14  H2  HET K   1)  -1.97077861 +1    2.5238853 +1   -0.7587382 +1
  H(HETATM   15  H1  HET D   2)   0.50740861 +1    0.7297853 +1    2.5370906 +1
  H(HETATM   16  H2  HET D   2)   0.87311258 +1    2.5193024 +1    0.8166591 +1
  H(HETATM   17  H3  HET D   2)   2.35997241 +1    1.9067582 +1   -1.1186500 +1
  H(HETATM   18  H4  HET D   2)   2.60242079 +1   -0.4931034 +1   -1.8027815 +1
  H(HETATM   19 1H   HET F   2)   0.47305062 +1   -1.6250200 +1    3.0887334 +1
  H(HETATM   20 2H   HET F   2)   1.03678516 +1   -2.8211274 +1    1.8922932 +1
  H(HETATM   21 3H   HET F   2)  -0.41916767 +1   -1.8444062 +1    1.5513272 +1
  C(HETATM   22  C1  HET K   1)   1.48415736 +0  162.5380490 +1  -39.6186349 +1    11     7     6
  C(HETATM   23  C2  HET K   1)  -1.68562249 +1    1.5068049 +1   -1.0341186 +1
  H(HETATM   24  H   HET B   2)   2.22229864 +1   -2.1888924 +1    0.0104712 +1
 
  11  1   23
 

          Geometry optimization using EF

          DIAGONAL MATRIX USED AS START HESSIAN

 CYCLE:     1 TIME:   0.031 TIME LEFT:  2.00D  GRAD.:    24.711 HEAT:  14.86645
 CYCLE:     2 TIME:   0.125 TIME LEFT:  2.00D  GRAD.:    27.513 HEAT:  14.84151
 CYCLE:     3 TIME:   0.078 TIME LEFT:  2.00D  GRAD.:    20.119 HEAT:  14.82943

     TRUST RADIUS NOW LESS THAN  0.00010 OPTIMIZATION TERMINATING
      THE GEOMETRY MAY NOT BE COMPLETELY OPTIMIZED
      (TO CONTINUE, ADD 'LET DDMIN=0.0' TO THE KEYWORD LINE)

          VARIABLE        FUNCTION
 :        -0.20000       14.829434
 eps=78.4 HTML(nores) symmetry  step=0.05 points=10
 Search for the transition state for the exemplar intermediate <=> product using a symmetry-defined dummy atom

  O(HETATM    1  O   HET A   1)  -2.09275872 +1   -0.7264101 +1   -0.4117769 +1
  C(HETATM    2  C   HET B   2)   1.94098866 +1   -1.1356280 +1    0.1124798 +1
  C(HETATM    3  C   HET C   1)  -2.08219956 +1    0.4484793 +1   -0.0971517 +1
  C(HETATM    4  C1  HET D   2)   0.97463967 +1    0.5338511 +1    1.5647562 +1
  N(HETATM    5  N   HET D   2)   1.44951857 +1   -0.7920429 +1    1.3981920 +1
  C(HETATM    6  C2  HET D   2)   1.14659115 +1    1.4851905 +1    0.6306234 +1
  C(HETATM    7  C3  HET D   2)   1.63905131 +1    1.1673370 +1   -0.7359227 +1
  C(HETATM    8  C4  HET D   2)   2.12170420 +1   -0.2309177 +1   -0.8650052 +1
  H(HETATM    9  H   HET E   1)  -2.36554901 +1    0.7342036 +1    0.9266967 +1
  C(HETATM   10  C   HET F   2)   0.58401885 +1   -1.8214378 +1    2.0077504 +1
 XX(HETATM   11 XX   HET K   1)   1.48260752 +1  104.6835015 +1  106.6791744 +1     7     6     4
  H(HETATM   11 1H1  HET K   1)  -0.20000000 -1  180.0000000 +0    0.0000000 +0    11     7     6
  H(HETATM   12 2H1  HET K   1)  -0.69710057 +1    0.2296498 +1   -2.4367543 +1
  H(HETATM   13 3H1  HET K   1)  -0.64659026 +1    2.0125162 +1   -2.8321512 +1
  H(HETATM   14  H2  HET K   1)  -1.97085857 +1    2.5238428 +1   -0.7587297 +1
  H(HETATM   15  H1  HET D   2)   0.50758134 +1    0.7297785 +1    2.5370844 +1
  H(HETATM   16  H2  HET D   2)   0.87317914 +1    2.5193237 +1    0.8166512 +1
  H(HETATM   17  H3  HET D   2)   2.35984785 +1    1.9067294 +1   -1.1186860 +1
  H(HETATM   18  H4  HET D   2)   2.60241231 +1   -0.4930790 +1   -1.8027725 +1
  H(HETATM   19 1H   HET F   2)   0.47304466 +1   -1.6250113 +1    3.0887256 +1
  H(HETATM   20 2H   HET F   2)   1.03680149 +1   -2.8211394 +1    1.8923264 +1
  H(HETATM   21 3H   HET F   2)  -0.41927026 +1   -1.8445027 +1    1.5513782 +1
  C(HETATM   22  C1  HET K   1)   1.48260752 +0  162.5383741 +1  -39.6171918 +1    11     7     6
  C(HETATM   23  C2  HET K   1)  -1.68563711 +1    1.5068079 +1   -1.0340251 +1
  H(HETATM   24  H   HET B   2)   2.22237152 +1   -2.1888873 +1    0.0104653 +1
 
  11  1   23
 

          Geometry optimization using EF

          DIAGONAL MATRIX USED AS START HESSIAN

 CYCLE:     1 TIME:   0.031 TIME LEFT:  2.00D  GRAD.:    38.361 HEAT:  19.47054
 CYCLE:     2 TIME:   0.062 TIME LEFT:  2.00D  GRAD.:   105.003 HEAT:  19.32894
 CYCLE:     3 TIME:   0.062 TIME LEFT:  2.00D  GRAD.:    92.003 HEAT:  19.29176
 CYCLE:     4 TIME:   0.016 TIME LEFT:  2.00D  GRAD.:    61.446 HEAT:  19.24675
 CYCLE:     5 TIME:   0.016 TIME LEFT:  2.00D  GRAD.:    79.671 HEAT:  19.23844
 CYCLE:     6 TIME:   0.031 TIME LEFT:  2.00D  GRAD.:    29.845 HEAT:  19.13651
 CYCLE:     7 TIME:   0.016 TIME LEFT:  2.00D  GRAD.:    15.375 HEAT:  19.08816
 CYCLE:     8 TIME:   0.016 TIME LEFT:  2.00D  GRAD.:    22.037 HEAT:  19.04506
 CYCLE:     9 TIME:   0.016 TIME LEFT:  2.00D  GRAD.:    13.671 HEAT:  18.97765
 CYCLE:    10 TIME:   0.031 TIME LEFT:  2.00D  GRAD.:    14.432 HEAT:  18.92783
 CYCLE:    11 TIME:   0.016 TIME LEFT:  2.00D  GRAD.:    20.754 HEAT:  18.89426
 CYCLE:    12 TIME:   0.062 TIME LEFT:  2.00D  GRAD.:    11.769 HEAT:  18.85038
 CYCLE:    13 TIME:   0.031 TIME LEFT:  2.00D  GRAD.:     9.523 HEAT:  18.83812
 CYCLE:    14 TIME:   0.016 TIME LEFT:  2.00D  GRAD.:     9.051 HEAT:  18.82012
 CYCLE:    15 TIME:   0.031 TIME LEFT:  2.00D  GRAD.:    10.413 HEAT:  18.80650
 CYCLE:    16 TIME:   0.016 TIME LEFT:  2.00D  GRAD.:     9.770 HEAT:  18.78548
 CYCLE:    17 TIME:   0.016 TIME LEFT:  2.00D  GRAD.:    14.319 HEAT:  18.77710
 CYCLE:    18 TIME:   0.062 TIME LEFT:  2.00D  GRAD.:     6.047 HEAT:  18.76472
 CYCLE:    19 TIME:   0.031 TIME LEFT:  2.00D  GRAD.:     9.628 HEAT:  18.76116
 CYCLE:    20 TIME:   0.031 TIME LEFT:  2.00D  GRAD.:     1.829 HEAT:  18.75658
 CYCLE:    21 TIME:   0.016 TIME LEFT:  2.00D  GRAD.:     6.233 HEAT:  18.75549
 CYCLE:    22 TIME:   0.016 TIME LEFT:  2.00D  GRAD.:     2.865 HEAT:  18.75574
 CYCLE:    23 TIME:   0.094 TIME LEFT:  2.00D  GRAD.:     1.266 HEAT:  18.75384
 CYCLE:    24 TIME:   0.094 TIME LEFT:  2.00D  GRAD.:     1.178 HEAT:  18.75319
 CYCLE:    25 TIME:   0.031 TIME LEFT:  2.00D  GRAD.:     6.476 HEAT:  18.75971
 CYCLE:    26 TIME:   0.031 TIME LEFT:  2.00D  GRAD.:    14.820 HEAT:  18.74304
 CYCLE:    27 TIME:   0.016 TIME LEFT:  2.00D  GRAD.:    11.321 HEAT:  18.72973
 CYCLE:    28 TIME:   0.047 TIME LEFT:  2.00D  GRAD.:     4.808 HEAT:  18.72326
 CYCLE:    29 TIME:   0.031 TIME LEFT:  2.00D  GRAD.:     2.488 HEAT:  18.71109
 CYCLE:    30 TIME:   0.016 TIME LEFT:  2.00D  GRAD.:     5.144 HEAT:  18.70628
 CYCLE:    31 TIME:   0.078 TIME LEFT:  2.00D  GRAD.:     3.157 HEAT:  18.71175
 CYCLE:    32 TIME:   0.016 TIME LEFT:  2.00D  GRAD.:     3.402 HEAT:  18.70679
 CYCLE:    33 TIME:   0.031 TIME LEFT:  2.00D  GRAD.:     2.215 HEAT:  18.69691
 CYCLE:    34 TIME:   0.125 TIME LEFT:  2.00D  GRAD.:     1.170 HEAT:  18.69557
 CYCLE:    35 TIME:   0.031 TIME LEFT:  2.00D  GRAD.:     2.249 HEAT:  18.69282
 CYCLE:    36 TIME:   0.016 TIME LEFT:  2.00D  GRAD.:     2.730 HEAT:  18.68154
 CYCLE:    37 TIME:   0.016 TIME LEFT:  2.00D  GRAD.:     4.911 HEAT:  18.66426
 CYCLE:    38 TIME:   0.016 TIME LEFT:  2.00D  GRAD.:     2.833 HEAT:  18.65755
 CYCLE:    39 TIME:   0.031 TIME LEFT:  2.00D  GRAD.:     2.991 HEAT:  18.59668
 CYCLE:    40 TIME:   0.016 TIME LEFT:  2.00D  GRAD.:     4.794 HEAT:  18.57859
 CYCLE:    41 TIME:   0.012 TIME LEFT:  2.00D  GRAD.:     2.095 HEAT:  18.56764
 CYCLE:    42 TIME:   0.020 TIME LEFT:  2.00D  GRAD.:     4.276 HEAT:  18.57001
 CYCLE:    43 TIME:   0.031 TIME LEFT:  2.00D  GRAD.:     3.296 HEAT:  18.52770
 CYCLE:    44 TIME:   0.027 TIME LEFT:  2.00D  GRAD.:     2.284 HEAT:  18.53515
 CYCLE:    45 TIME:   0.078 TIME LEFT:  2.00D  GRAD.:     1.448 HEAT:  18.53497
 CYCLE:    46 TIME:   0.020 TIME LEFT:  2.00D  GRAD.:     4.132 HEAT:  18.53570
 CYCLE:    47 TIME:   0.137 TIME LEFT:  2.00D  GRAD.:     1.812 HEAT:  18.53393
 CYCLE:    48 TIME:   0.156 TIME LEFT:  2.00D  GRAD.:     1.286 HEAT:  18.53302
 CYCLE:    49 TIME:   0.203 TIME LEFT:  2.00D  GRAD.:     1.226 HEAT:  18.53282

     TRUST RADIUS NOW LESS THAN  0.00010 OPTIMIZATION TERMINATING
      THE GEOMETRY MAY NOT BE COMPLETELY OPTIMIZED
      (TO CONTINUE, ADD 'LET DDMIN=0.0' TO THE KEYWORD LINE)

          VARIABLE        FUNCTION
 :        -0.15000       18.527632
 eps=78.4 HTML(nores) symmetry  step=0.05 points=10
 Search for the transition state for the exemplar intermediate <=> product using a symmetry-defined dummy atom

  O(HETATM    1  O   HET A   1)  -2.15056958 +1   -0.7315591 +1   -0.4381170 +1
  C(HETATM    2  C   HET B   2)   1.90786993 +1   -1.1385145 +1    0.0866606 +1
  C(HETATM    3  C   HET C   1)  -2.14405369 +1    0.4440420 +1   -0.1219204 +1
  C(HETATM    4  C1  HET D   2)   1.02201504 +1    0.5396308 +1    1.5773087 +1
  N(HETATM    5  N   HET D   2)   1.43382998 +1   -0.8002192 +1    1.3763366 +1
  C(HETATM    6  C2  HET D   2)   1.19142050 +1    1.4974279 +1    0.6469726 +1
  C(HETATM    7  C3  HET D   2)   1.63451134 +1    1.1751907 +1   -0.7304190 +1
  C(HETATM    8  C4  HET D   2)   2.10646227 +1   -0.2208265 +1   -0.8771353 +1
  H(HETATM    9  H   HET E   1)  -2.50336668 +1    0.7312087 +1    0.8785479 +1
  C(HETATM   10  C   HET F   2)   0.58181578 +1   -1.8194591 +1    2.0149634 +1
 XX(HETATM   11 XX   HET K   1)   1.43656540 +1  105.4082610 +1  103.8442432 +1     7     6     4
  H(HETATM   11 1H1  HET K   1)  -0.15000000 -1  180.0000000 +0    0.0000000 +0    11     7     6
  H(HETATM   12 2H1  HET K   1)  -0.64987456 +1    0.2014204 +1   -2.3870798 +1
  H(HETATM   13 3H1  HET K   1)  -0.56845321 +1    1.9838769 +1   -2.7951247 +1
  H(HETATM   14  H2  HET K   1)  -1.97656070 +1    2.5141770 +1   -0.7734327 +1
  H(HETATM   15  H1  HET D   2)   0.62487799 +1    0.7441195 +1    2.5783658 +1
  H(HETATM   16  H2  HET D   2)   0.97109999 +1    2.5394404 +1    0.8561308 +1
  H(HETATM   17  H3  HET D   2)   2.31740535 +1    1.9212942 +1   -1.1589147 +1
  H(HETATM   18  H4  HET D   2)   2.58863557 +1   -0.4753562 +1   -1.8158587 +1
  H(HETATM   19 1H   HET F   2)   0.43826300 +1   -1.5780803 +1    3.0830273 +1
  H(HETATM   20 2H   HET F   2)   1.07096405 +1   -2.8090426 +1    1.9585748 +1
  H(HETATM   21 3H   HET F   2)  -0.41381200 +1   -1.9022849 +1    1.5468579 +1
  C(HETATM   22  C1  HET K   1)   1.43656540 +0  165.9946749 +1  -38.2428545 +1    11     7     6
  C(HETATM   23  C2  HET K   1)  -1.67930511 +1    1.4972968 +1   -1.0284157 +1
  H(HETATM   24  H   HET B   2)   2.16860477 +1   -2.1951283 +1   -0.0331747 +1
 
  11  1   23
 

          Geometry optimization using EF

          DIAGONAL MATRIX USED AS START HESSIAN

 CYCLE:     1 TIME:   0.031 TIME LEFT:  2.00D  GRAD.:    27.405 HEAT:  23.16150
 CYCLE:     2 TIME:   0.141 TIME LEFT:  2.00D  GRAD.:    35.667 HEAT:  23.13628
 CYCLE:     3 TIME:   0.016 TIME LEFT:  2.00D  GRAD.:    15.936 HEAT:  23.09409
 CYCLE:     4 TIME:   0.031 TIME LEFT:  2.00D  GRAD.:    27.897 HEAT:  23.07474
 CYCLE:     5 TIME:   0.016 TIME LEFT:  2.00D  GRAD.:    26.541 HEAT:  23.06988
 CYCLE:     6 TIME:   0.031 TIME LEFT:  2.00D  GRAD.:     4.014 HEAT:  23.05109
 CYCLE:     7 TIME:   0.062 TIME LEFT:  2.00D  GRAD.:     6.476 HEAT:  23.04979
 CYCLE:     8 TIME:   0.031 TIME LEFT:  2.00D  GRAD.:     9.250 HEAT:  23.04847
 CYCLE:     9 TIME:   0.094 TIME LEFT:  2.00D  GRAD.:     2.949 HEAT:  23.04501
 CYCLE:    10 TIME:   0.016 TIME LEFT:  2.00D  GRAD.:     4.843 HEAT:  23.04355
 CYCLE:    11 TIME:   0.062 TIME LEFT:  2.00D  GRAD.:     2.441 HEAT:  23.04373
 CYCLE:    12 TIME:   0.047 TIME LEFT:  2.00D  GRAD.:     6.939 HEAT:  23.04520
 CYCLE:    13 TIME:   0.094 TIME LEFT:  2.00D  GRAD.:     2.237 HEAT:  23.03378
 CYCLE:    14 TIME:   0.047 TIME LEFT:  2.00D  GRAD.:     1.542 HEAT:  23.04029

     TRUST RADIUS NOW LESS THAN  0.00010 OPTIMIZATION TERMINATING
      THE GEOMETRY MAY NOT BE COMPLETELY OPTIMIZED
      (TO CONTINUE, ADD 'LET DDMIN=0.0' TO THE KEYWORD LINE)

          VARIABLE        FUNCTION
 :        -0.10000       23.033782
 eps=78.4 HTML(nores) symmetry  step=0.05 points=10
 Search for the transition state for the exemplar intermediate <=> product using a symmetry-defined dummy atom

  O(HETATM    1  O   HET A   1)  -2.15075368 +1   -0.7315694 +1   -0.4360388 +1
  C(HETATM    2  C   HET B   2)   1.90622250 +1   -1.1394201 +1    0.0845854 +1
  C(HETATM    3  C   HET C   1)  -2.14394207 +1    0.4443557 +1   -0.1199124 +1
  C(HETATM    4  C1  HET D   2)   1.01870505 +1    0.5385824 +1    1.5740445 +1
  N(HETATM    5  N   HET D   2)   1.42924453 +1   -0.7998062 +1    1.3715978 +1
  C(HETATM    6  C2  HET D   2)   1.18926835 +1    1.4957144 +1    0.6421200 +1
  C(HETATM    7  C3  HET D   2)   1.63661451 +1    1.1731332 +1   -0.7285912 +1
  C(HETATM    8  C4  HET D   2)   2.10213171 +1   -0.2208642 +1   -0.8798536 +1
  H(HETATM    9  H   HET E   1)  -2.50898109 +1    0.7334978 +1    0.8768452 +1
  C(HETATM   10  C   HET F   2)   0.58160639 +1   -1.8196094 +1    2.0162628 +1
 XX(HETATM   11 XX   HET K   1)   1.42313729 +1  105.1061236 +1  104.0409488 +1     7     6     4
  H(HETATM   11 1H1  HET K   1)  -0.10000000 -1  180.0000000 +0    0.0000000 +0    11     7     6
  H(HETATM   12 2H1  HET K   1)  -0.64506940 +1    0.2004847 +1   -2.3820271 +1
  H(HETATM   13 3H1  HET K   1)  -0.56059023 +1    1.9874441 +1   -2.7862251 +1
  H(HETATM   14  H2  HET K   1)  -1.97674471 +1    2.5119958 +1   -0.7710772 +1
  H(HETATM   15  H1  HET D   2)   0.62626399 +1    0.7436149 +1    2.5762569 +1
  H(HETATM   16  H2  HET D   2)   0.97421148 +1    2.5383962 +1    0.8537568 +1
  H(HETATM   17  H3  HET D   2)   2.30836447 +1    1.9214106 +1   -1.1691778 +1
  H(HETATM   18  H4  HET D   2)   2.58477713 +1   -0.4745804 +1   -1.8196529 +1
  H(HETATM   19 1H   HET F   2)   0.43981603 +1   -1.5752571 +1    3.0839527 +1
  H(HETATM   20 2H   HET F   2)   1.07067506 +1   -2.8086728 +1    1.9616696 +1
  H(HETATM   21 3H   HET F   2)  -0.41380294 +1   -1.9022193 +1    1.5473298 +1
  C(HETATM   22  C1  HET K   1)   1.42313729 +0  165.9729863 +1  -38.3747681 +1    11     7     6
  C(HETATM   23  C2  HET K   1)  -1.67082634 +1    1.4959501 +1   -1.0193446 +1
  H(HETATM   24  H   HET B   2)   2.17458910 +1   -2.1939262 +1   -0.0323670 +1
 
  11  1   23
 

          Geometry optimization using EF

          DIAGONAL MATRIX USED AS START HESSIAN

 CYCLE:     1 TIME:   0.051 TIME LEFT:  2.00D  GRAD.:    32.133 HEAT:  27.87257
 CYCLE:     2 TIME:   0.184 TIME LEFT:  2.00D  GRAD.:    40.081 HEAT:  27.85516
 CYCLE:     3 TIME:   0.082 TIME LEFT:  2.00D  GRAD.:    17.676 HEAT:  27.81599
 CYCLE:     4 TIME:   0.109 TIME LEFT:  2.00D  GRAD.:    15.702 HEAT:  27.81046
 CYCLE:     5 TIME:   0.074 TIME LEFT:  2.00D  GRAD.:    15.277 HEAT:  27.80846

     TRUST RADIUS NOW LESS THAN  0.00010 OPTIMIZATION TERMINATING
      THE GEOMETRY MAY NOT BE COMPLETELY OPTIMIZED
      (TO CONTINUE, ADD 'LET DDMIN=0.0' TO THE KEYWORD LINE)

          VARIABLE        FUNCTION
 :        -0.05000       27.808455
 eps=78.4 HTML(nores) symmetry  step=0.05 points=10
 Search for the transition state for the exemplar intermediate <=> product using a symmetry-defined dummy atom

  O(HETATM    1  O   HET A   1)  -2.15072513 +1   -0.7317442 +1   -0.4360295 +1
  C(HETATM    2  C   HET B   2)   1.90620802 +1   -1.1394036 +1    0.0846550 +1
  C(HETATM    3  C   HET C   1)  -2.14388167 +1    0.4447304 +1   -0.1200983 +1
  C(HETATM    4  C1  HET D   2)   1.01833050 +1    0.5383568 +1    1.5739586 +1
  N(HETATM    5  N   HET D   2)   1.42908556 +1   -0.7996717 +1    1.3715941 +1
  C(HETATM    6  C2  HET D   2)   1.18973307 +1    1.4957057 +1    0.6416428 +1
  C(HETATM    7  C3  HET D   2)   1.63797984 +1    1.1729564 +1   -0.7274320 +1
  C(HETATM    8  C4  HET D   2)   2.10180304 +1   -0.2203272 +1   -0.8801809 +1
  H(HETATM    9  H   HET E   1)  -2.50906329 +1    0.7334914 +1    0.8768738 +1
  C(HETATM   10  C   HET F   2)   0.58163931 +1   -1.8196295 +1    2.0162730 +1
 XX(HETATM   11 XX   HET K   1)   1.42038995 +1  105.1066500 +1  104.0676000 +1     7     6     4
  H(HETATM   11 1H1  HET K   1)  -0.05000000 -1  180.0000000 +0    0.0000000 +0    11     7     6
  H(HETATM   12 2H1  HET K   1)  -0.64519908 +1    0.2002458 +1   -2.3822269 +1
  H(HETATM   13 3H1  HET K   1)  -0.56069763 +1    1.9875220 +1   -2.7864461 +1
  H(HETATM   14  H2  HET K   1)  -1.97666104 +1    2.5119894 +1   -0.7710659 +1
  H(HETATM   15  H1  HET D   2)   0.62627244 +1    0.7436152 +1    2.5762012 +1
  H(HETATM   16  H2  HET D   2)   0.97421132 +1    2.5384161 +1    0.8537336 +1
  H(HETATM   17  H3  HET D   2)   2.30800275 +1    1.9213602 +1   -1.1693502 +1
  H(HETATM   18  H4  HET D   2)   2.58471192 +1   -0.4745919 +1   -1.8195837 +1
  H(HETATM   19 1H   HET F   2)   0.43983228 +1   -1.5752298 +1    3.0839502 +1
  H(HETATM   20 2H   HET F   2)   1.07067729 +1   -2.8086626 +1    1.9616832 +1
  H(HETATM   21 3H   HET F   2)  -0.41383229 +1   -1.9022413 +1    1.5473506 +1
  C(HETATM   22  C1  HET K   1)   1.42038995 +0  165.9713523 +1  -38.3726832 +1    11     7     6
  C(HETATM   23  C2  HET K   1)  -1.67129571 +1    1.4957644 +1   -1.0189701 +1
  H(HETATM   24  H   HET B   2)   2.17464830 +1   -2.1939972 +1   -0.0323787 +1
 
  11  1   23
 

          Geometry optimization using EF

          DIAGONAL MATRIX USED AS START HESSIAN

 CYCLE:     1 TIME:   0.031 TIME LEFT:  2.00D  GRAD.:    45.552 HEAT:  32.85256
 CYCLE:     2 TIME:   0.219 TIME LEFT:  2.00D  GRAD.:    59.576 HEAT:  32.85034
 CYCLE:     3 TIME:   0.016 TIME LEFT:  2.00D  GRAD.:    27.940 HEAT:  32.72962
 CYCLE:     4 TIME:   0.031 TIME LEFT:  2.00D  GRAD.:    29.382 HEAT:  32.63855
 CYCLE:     5 TIME:   0.031 TIME LEFT:  2.00D  GRAD.:    34.059 HEAT:  32.57481
 CYCLE:     6 TIME:   0.031 TIME LEFT:  2.00D  GRAD.:     9.838 HEAT:  32.49763
 CYCLE:     7 TIME:   0.047 TIME LEFT:  2.00D  GRAD.:    13.262 HEAT:  32.48343
 CYCLE:     8 TIME:   0.047 TIME LEFT:  2.00D  GRAD.:    15.357 HEAT:  32.45716
 CYCLE:     9 TIME:   0.031 TIME LEFT:  2.00D  GRAD.:     6.951 HEAT:  32.42553
 CYCLE:    10 TIME:   0.027 TIME LEFT:  2.00D  GRAD.:    27.843 HEAT:  32.39926
 CYCLE:    11 TIME:   0.020 TIME LEFT:  2.00D  GRAD.:    10.083 HEAT:  32.35428
 CYCLE:    12 TIME:   0.094 TIME LEFT:  2.00D  GRAD.:    14.530 HEAT:  32.34646
 CYCLE:    13 TIME:   0.012 TIME LEFT:  2.00D  GRAD.:     9.813 HEAT:  32.33695
 CYCLE:    14 TIME:   0.031 TIME LEFT:  2.00D  GRAD.:    19.226 HEAT:  32.32649
 CYCLE:    15 TIME:   0.035 TIME LEFT:  2.00D  GRAD.:     4.846 HEAT:  32.30829
 CYCLE:    16 TIME:   0.012 TIME LEFT:  2.00D  GRAD.:    17.922 HEAT:  32.30666
 CYCLE:    17 TIME:   0.031 TIME LEFT:  2.00D  GRAD.:     7.608 HEAT:  32.28399
 CYCLE:    18 TIME:   0.035 TIME LEFT:  2.00D  GRAD.:    18.348 HEAT:  32.26539
 CYCLE:    19 TIME:   0.012 TIME LEFT:  2.00D  GRAD.:     7.027 HEAT:  32.22471
 CYCLE:    20 TIME:   0.031 TIME LEFT:  2.00D  GRAD.:    13.449 HEAT:  32.12957
 CYCLE:    21 TIME:   0.078 TIME LEFT:  2.00D  GRAD.:     9.798 HEAT:  32.10638
 CYCLE:    22 TIME:   0.047 TIME LEFT:  2.00D  GRAD.:     9.612 HEAT:  32.09260
 CYCLE:    23 TIME:   0.094 TIME LEFT:  2.00D  GRAD.:     4.286 HEAT:  32.08895
 CYCLE:    24 TIME:   0.062 TIME LEFT:  2.00D  GRAD.:     3.643 HEAT:  32.08762

     TRUST RADIUS NOW LESS THAN  0.00010 OPTIMIZATION TERMINATING
      THE GEOMETRY MAY NOT BE COMPLETELY OPTIMIZED
      (TO CONTINUE, ADD 'LET DDMIN=0.0' TO THE KEYWORD LINE)

          VARIABLE        FUNCTION
 :        -0.00000       32.087621
 eps=78.4 HTML(nores) symmetry  step=0.05 points=10
 Search for the transition state for the exemplar intermediate <=> product using a symmetry-defined dummy atom

  O(HETATM    1  O   HET A   1)  -2.12244772 +1   -0.7383439 +1   -0.4109153 +1
  C(HETATM    2  C   HET B   2)   1.88937174 +1   -1.1372814 +1    0.0702432 +1
  C(HETATM    3  C   HET C   1)  -2.13578457 +1    0.4467727 +1   -0.1101865 +1
  C(HETATM    4  C1  HET D   2)   0.99795245 +1    0.5383094 +1    1.5545923 +1
  N(HETATM    5  N   HET D   2)   1.37898324 +1   -0.7963138 +1    1.3358197 +1
  C(HETATM    6  C2  HET D   2)   1.19515300 +1    1.5021310 +1    0.6281896 +1
  C(HETATM    7  C3  HET D   2)   1.65226467 +1    1.1739514 +1   -0.7258178 +1
  C(HETATM    8  C4  HET D   2)   2.10415171 +1   -0.2123520 +1   -0.8898868 +1
  H(HETATM    9  H   HET E   1)  -2.55391834 +1    0.7321150 +1    0.8691685 +1
  C(HETATM   10  C   HET F   2)   0.57912315 +1   -1.8241736 +1    2.0214051 +1
 XX(HETATM   11 XX   HET K   1)   1.39333375 +1  104.3901712 +1  102.9163724 +1     7     6     4
  H(HETATM   11 1H1  HET K   1)  -0.00000000 -1  180.0000000 +0    0.0000000 +0    11     7     6
  H(HETATM   12 2H1  HET K   1)  -0.63587482 +1    0.1917526 +1   -2.3720825 +1
  H(HETATM   13 3H1  HET K   1)  -0.54384881 +1    1.9824853 +1   -2.7661289 +1
  H(HETATM   14  H2  HET K   1)  -1.91995729 +1    2.5086116 +1   -0.7336110 +1
  H(HETATM   15  H1  HET D   2)   0.60457793 +1    0.7463010 +1    2.5581082 +1
  H(HETATM   16  H2  HET D   2)   0.98666143 +1    2.5457879 +1    0.8460730 +1
  H(HETATM   17  H3  HET D   2)   2.26372910 +1    1.9377855 +1   -1.2163716 +1
  H(HETATM   18  H4  HET D   2)   2.58813404 +1   -0.4713456 +1   -1.8251598 +1
  H(HETATM   19 1H   HET F   2)   0.45738201 +1   -1.5650646 +1    3.0892777 +1
  H(HETATM   20 2H   HET F   2)   1.08614578 +1   -2.8039603 +1    1.9701399 +1
  H(HETATM   21 3H   HET F   2)  -0.42776799 +1   -1.9340540 +1    1.5792004 +1
  C(HETATM   22  C1  HET K   1)   1.39333375 +0  165.8648234 +1  -38.7235542 +1    11     7     6
  C(HETATM   23  C2  HET K   1)  -1.63657880 +1    1.4878601 +1   -0.9827927 +1
  H(HETATM   24  H   HET B   2)   2.16432696 +1   -2.1923195 +1   -0.0451111 +1
 
  11  1   23
 

          Geometry optimization using EF

          DIAGONAL MATRIX USED AS START HESSIAN

 CYCLE:     1 TIME:   0.031 TIME LEFT:  2.00D  GRAD.:    59.644 HEAT:  36.15248
 CYCLE:     2 TIME:   0.125 TIME LEFT:  2.00D  GRAD.:    70.830 HEAT:  36.13072
 CYCLE:     3 TIME:   0.031 TIME LEFT:  2.00D  GRAD.:    35.844 HEAT:  35.98856
 CYCLE:     4 TIME:   0.031 TIME LEFT:  2.00D  GRAD.:    47.725 HEAT:  35.91426
 CYCLE:     5 TIME:   0.016 TIME LEFT:  2.00D  GRAD.:    24.261 HEAT:  35.77270
 CYCLE:     6 TIME:   0.031 TIME LEFT:  2.00D  GRAD.:    12.130 HEAT:  35.67445
 CYCLE:     7 TIME:   0.016 TIME LEFT:  2.00D  GRAD.:    26.206 HEAT:  35.54904
 CYCLE:     8 TIME:   0.031 TIME LEFT:  2.00D  GRAD.:    22.555 HEAT:  35.38049
 CYCLE:     9 TIME:   0.031 TIME LEFT:  2.00D  GRAD.:    23.482 HEAT:  35.32461
 CYCLE:    10 TIME:   0.031 TIME LEFT:  2.00D  GRAD.:    18.362 HEAT:  35.14696
 CYCLE:    11 TIME:   0.016 TIME LEFT:  2.00D  GRAD.:    23.149 HEAT:  34.99543
 CYCLE:    12 TIME:   0.031 TIME LEFT:  2.00D  GRAD.:    30.069 HEAT:  34.60810
 CYCLE:    13 TIME:   0.016 TIME LEFT:  2.00D  GRAD.:    36.540 HEAT:  34.44423
 CYCLE:    14 TIME:   0.016 TIME LEFT:  2.00D  GRAD.:    43.701 HEAT:  33.95135
 CYCLE:    15 TIME:   0.031 TIME LEFT:  2.00D  GRAD.:    35.171 HEAT:  33.58595
 CYCLE:    16 TIME:   0.031 TIME LEFT:  2.00D  GRAD.:    51.668 HEAT:  33.53100
 CYCLE:    17 TIME:   0.031 TIME LEFT:  2.00D  GRAD.:    58.168 HEAT:  33.42779
 CYCLE:    18 TIME:   0.047 TIME LEFT:  2.00D  GRAD.:    40.224 HEAT:  32.89170
 CYCLE:    19 TIME:   0.031 TIME LEFT:  2.00D  GRAD.:    29.896 HEAT:  32.87582
 CYCLE:    20 TIME:   0.016 TIME LEFT:  2.00D  GRAD.:    39.547 HEAT:  32.82284
 CYCLE:    21 TIME:   0.016 TIME LEFT:  2.00D  GRAD.:    31.689 HEAT:  32.67175
 CYCLE:    22 TIME:   0.031 TIME LEFT:  2.00D  GRAD.:    34.038 HEAT:  32.55090
 CYCLE:    23 TIME:   0.016 TIME LEFT:  2.00D  GRAD.:    28.303 HEAT:  32.43455
 CYCLE:    24 TIME:   0.047 TIME LEFT:  2.00D  GRAD.:    29.810 HEAT:  32.31292
 CYCLE:    25 TIME:   0.016 TIME LEFT:  2.00D  GRAD.:    19.995 HEAT:  32.22931
 CYCLE:    26 TIME:   0.016 TIME LEFT:  2.00D  GRAD.:    18.498 HEAT:  31.96201
 CYCLE:    27 TIME:   0.031 TIME LEFT:  2.00D  GRAD.:    27.748 HEAT:  31.82896
 CYCLE:    28 TIME:   0.047 TIME LEFT:  2.00D  GRAD.:     9.490 HEAT:  31.81318
 CYCLE:    29 TIME:   0.062 TIME LEFT:  2.00D  GRAD.:     5.747 HEAT:  31.79920
 CYCLE:    30 TIME:   0.016 TIME LEFT:  2.00D  GRAD.:     4.632 HEAT:  31.79563
 CYCLE:    31 TIME:   0.047 TIME LEFT:  2.00D  GRAD.:     3.740 HEAT:  31.80246
 CYCLE:    32 TIME:   0.047 TIME LEFT:  2.00D  GRAD.:     9.673 HEAT:  31.65605
 CYCLE:    33 TIME:   0.047 TIME LEFT:  2.00D  GRAD.:     9.475 HEAT:  31.59563
 CYCLE:    34 TIME:   0.047 TIME LEFT:  2.00D  GRAD.:    10.975 HEAT:  31.59146
 CYCLE:    35 TIME:   0.031 TIME LEFT:  2.00D  GRAD.:     7.818 HEAT:  31.58751
 CYCLE:    36 TIME:   0.047 TIME LEFT:  2.00D  GRAD.:     3.878 HEAT:  31.55689
 CYCLE:    37 TIME:   0.016 TIME LEFT:  2.00D  GRAD.:     5.772 HEAT:  31.53434
 CYCLE:    38 TIME:   0.109 TIME LEFT:  2.00D  GRAD.:     2.999 HEAT:  31.52846
 CYCLE:    39 TIME:   0.016 TIME LEFT:  2.00D  GRAD.:     1.999 HEAT:  31.53752
 CYCLE:    40 TIME:   0.125 TIME LEFT:  2.00D  GRAD.:     1.824 HEAT:  31.54706
 CYCLE:    41 TIME:   0.016 TIME LEFT:  2.00D  GRAD.:     7.717 HEAT:  31.54285
 CYCLE:    42 TIME:   0.109 TIME LEFT:  2.00D  GRAD.:     4.772 HEAT:  31.53174
 CYCLE:    43 TIME:   0.016 TIME LEFT:  2.00D  GRAD.:     2.433 HEAT:  31.53869
 CYCLE:    44 TIME:   0.027 TIME LEFT:  2.00D  GRAD.:     4.659 HEAT:  31.53517
 CYCLE:    45 TIME:   0.035 TIME LEFT:  2.00D  GRAD.:     5.451 HEAT:  31.51768
 CYCLE:    46 TIME:   0.012 TIME LEFT:  2.00D  GRAD.:     6.094 HEAT:  31.50307
 CYCLE:    47 TIME:   0.051 TIME LEFT:  2.00D  GRAD.:     3.858 HEAT:  31.50258
 CYCLE:    48 TIME:   0.027 TIME LEFT:  2.00D  GRAD.:     4.257 HEAT:  31.49290
 CYCLE:    49 TIME:   0.020 TIME LEFT:  2.00D  GRAD.:     6.602 HEAT:  31.47249
 CYCLE:    50 TIME:   0.012 TIME LEFT:  2.00D  GRAD.:     4.793 HEAT:  31.45203
 CYCLE:    51 TIME:   0.035 TIME LEFT:  2.00D  GRAD.:     3.712 HEAT:  31.41154
 CYCLE:    52 TIME:   0.078 TIME LEFT:  2.00D  GRAD.:     2.095 HEAT:  31.40125
 CYCLE:    53 TIME:   0.105 TIME LEFT:  2.00D  GRAD.:     1.631 HEAT:  31.40059
 CYCLE:    54 TIME:   0.219 TIME LEFT:  2.00D  GRAD.:     1.504 HEAT:  31.40053

     TRUST RADIUS NOW LESS THAN  0.00010 OPTIMIZATION TERMINATING
      THE GEOMETRY MAY NOT BE COMPLETELY OPTIMIZED
      (TO CONTINUE, ADD 'LET DDMIN=0.0' TO THE KEYWORD LINE)

          VARIABLE        FUNCTION
 :         0.05000       31.400526
 eps=78.4 HTML(nores) symmetry  step=0.05 points=10
 Search for the transition state for the exemplar intermediate <=> product using a symmetry-defined dummy atom

  O(HETATM    1  O   HET A   1)  -1.95514926 +1   -0.7311004 +1   -0.2550843 +1
  C(HETATM    2  C   HET B   2)   1.75162629 +1   -1.1549364 +1    0.0072729 +1
  C(HETATM    3  C   HET C   1)  -2.03177384 +1    0.4988298 +1   -0.0479368 +1
  C(HETATM    4  C1  HET D   2)   0.83618434 +1    0.5194454 +1    1.4389944 +1
  N(HETATM    5  N   HET D   2)   1.08389657 +1   -0.7993378 +1    1.1558982 +1
  C(HETATM    6  C2  HET D   2)   1.20935012 +1    1.5088476 +1    0.5571213 +1
  C(HETATM    7  C3  HET D   2)   1.74719867 +1    1.1662854 +1   -0.7213191 +1
  C(HETATM    8  C4  HET D   2)   2.13231581 +1   -0.2006316 +1   -0.9035657 +1
  H(HETATM    9  H   HET E   1)  -2.60486752 +1    0.7812543 +1    0.8511572 +1
  C(HETATM   10  C   HET F   2)   0.59578926 +1   -1.8387714 +1    2.0643336 +1
 XX(HETATM   11 XX   HET K   1)   1.38957191 +1  102.3434159 +1   97.8125910 +1     7     6     4
  H(HETATM   11 1H1  HET K   1)   0.05000000 -1  180.0000000 +0    0.0000000 +0    11     7     6
  H(HETATM   12 2H1  HET K   1)  -0.71120423 +1    0.1992694 +1   -2.3829087 +1
  H(HETATM   13 3H1  HET K   1)  -0.64286536 +1    1.9636911 +1   -2.7864445 +1
  H(HETATM   14  H2  HET K   1)  -1.66261631 +1    2.5255145 +1   -0.5867489 +1
  H(HETATM   15  H1  HET D   2)   0.35689197 +1    0.7477694 +1    2.4029943 +1
  H(HETATM   16  H2  HET D   2)   1.06154367 +1    2.5576789 +1    0.8123182 +1
  H(HETATM   17  H3  HET D   2)   2.25375370 +1    1.9470342 +1   -1.3120913 +1
  H(HETATM   18  H4  HET D   2)   2.69985924 +1   -0.4789407 +1   -1.7916885 +1
  H(HETATM   19 1H   HET F   2)   0.61482069 +1   -1.4982623 +1    3.1173234 +1
  H(HETATM   20 2H   HET F   2)   1.21442102 +1   -2.7545204 +1    2.0071239 +1
  H(HETATM   21 3H   HET F   2)  -0.44946260 +1   -2.1119623 +1    1.8090256 +1
  C(HETATM   22  C1  HET K   1)   1.38957191 +0  160.6453401 +1  -36.0237647 +1    11     7     6
  C(HETATM   23  C2  HET K   1)  -1.50428038 +1    1.4946532 +1   -0.8584307 +1
  H(HETATM   24  H   HET B   2)   1.97634308 +1   -2.2231544 +1   -0.1331903 +1
 
  11  1   23
 

          Geometry optimization using EF

          DIAGONAL MATRIX USED AS START HESSIAN

 CYCLE:     1 TIME:   0.016 TIME LEFT:  2.00D  GRAD.:    56.705 HEAT:  28.72670
 CYCLE:     2 TIME:   0.109 TIME LEFT:  2.00D  GRAD.:   125.520 HEAT:  28.71779
 CYCLE:     3 TIME:   0.031 TIME LEFT:  2.00D  GRAD.:    79.161 HEAT:  28.53604
 CYCLE:     4 TIME:   0.016 TIME LEFT:  2.00D  GRAD.:    67.451 HEAT:  28.42439
 CYCLE:     5 TIME:   0.016 TIME LEFT:  2.00D  GRAD.:    62.337 HEAT:  28.28001
 CYCLE:     6 TIME:   0.031 TIME LEFT:  2.00D  GRAD.:    31.224 HEAT:  28.11831
 CYCLE:     7 TIME:   0.047 TIME LEFT:  2.00D  GRAD.:    31.392 HEAT:  28.05964
 CYCLE:     8 TIME:   0.016 TIME LEFT:  2.00D  GRAD.:    38.076 HEAT:  28.03065
 CYCLE:     9 TIME:   0.016 TIME LEFT:  2.00D  GRAD.:    38.773 HEAT:  28.01189
 CYCLE:    10 TIME:   0.047 TIME LEFT:  2.00D  GRAD.:    34.908 HEAT:  27.93193
 CYCLE:    11 TIME:   0.047 TIME LEFT:  2.00D  GRAD.:     6.013 HEAT:  27.92435
 CYCLE:    12 TIME:   0.016 TIME LEFT:  2.00D  GRAD.:    15.879 HEAT:  27.91856
 CYCLE:    13 TIME:   0.016 TIME LEFT:  2.00D  GRAD.:     6.337 HEAT:  27.90725
 CYCLE:    14 TIME:   0.016 TIME LEFT:  2.00D  GRAD.:    15.375 HEAT:  27.90700
 CYCLE:    15 TIME:   0.031 TIME LEFT:  2.00D  GRAD.:     7.657 HEAT:  27.88558
 CYCLE:    16 TIME:   0.078 TIME LEFT:  2.00D  GRAD.:     3.660 HEAT:  27.88768
 CYCLE:    17 TIME:   0.016 TIME LEFT:  2.00D  GRAD.:     1.836 HEAT:  27.88437
 CYCLE:    18 TIME:   0.031 TIME LEFT:  2.00D  GRAD.:     8.868 HEAT:  27.87144
 CYCLE:    19 TIME:   0.047 TIME LEFT:  2.00D  GRAD.:     4.180 HEAT:  27.87066
 CYCLE:    20 TIME:   0.016 TIME LEFT:  2.00D  GRAD.:     7.348 HEAT:  27.87473
 CYCLE:    21 TIME:   0.031 TIME LEFT:  2.00D  GRAD.:     2.503 HEAT:  27.86854
 CYCLE:    22 TIME:   0.016 TIME LEFT:  2.00D  GRAD.:     5.606 HEAT:  27.87371
 CYCLE:    23 TIME:   0.016 TIME LEFT:  2.00D  GRAD.:     3.475 HEAT:  27.87381
 CYCLE:    24 TIME:   0.047 TIME LEFT:  2.00D  GRAD.:     4.889 HEAT:  27.86959
 CYCLE:    25 TIME:   0.016 TIME LEFT:  2.00D  GRAD.:     3.434 HEAT:  27.87100
 CYCLE:    26 TIME:   0.078 TIME LEFT:  2.00D  GRAD.:     2.288 HEAT:  27.87271
 CYCLE:    27 TIME:   0.016 TIME LEFT:  2.00D  GRAD.:     1.924 HEAT:  27.87212
 CYCLE:    28 TIME:   0.047 TIME LEFT:  2.00D  GRAD.:     2.151 HEAT:  27.88081
 CYCLE:    29 TIME:   0.047 TIME LEFT:  2.00D  GRAD.:     1.854 HEAT:  27.88240
 CYCLE:    30 TIME:   0.078 TIME LEFT:  2.00D  GRAD.:     1.119 HEAT:  27.88839
 CYCLE:    31 TIME:   0.078 TIME LEFT:  2.00D  GRAD.:     1.649 HEAT:  27.89639
 CYCLE:    32 TIME:   0.109 TIME LEFT:  2.00D  GRAD.:     1.687 HEAT:  27.90407
 CYCLE:    33 TIME:   0.109 TIME LEFT:  2.00D  GRAD.:     0.873 HEAT:  27.91106

     GRADIENT =  0.87316  IS LESS THAN CUTOFF =  1.00000



          VARIABLE        FUNCTION
 :         0.10000       27.911060
 eps=78.4 HTML(nores) symmetry  step=0.05 points=10
 Search for the transition state for the exemplar intermediate <=> product using a symmetry-defined dummy atom

  O(HETATM    1  O   HET A   1)  -1.93020600 +1   -0.7180924 +1   -0.2385242 +1
  C(HETATM    2  C   HET B   2)   1.74731905 +1   -1.1616568 +1    0.0156047 +1
  C(HETATM    3  C   HET C   1)  -2.01550381 +1    0.5216401 +1   -0.0463491 +1
  C(HETATM    4  C1  HET D   2)   0.83986952 +1    0.5127475 +1    1.4411243 +1
  N(HETATM    5  N   HET D   2)   1.08312129 +1   -0.8018719 +1    1.1583513 +1
  C(HETATM    6  C2  HET D   2)   1.22574929 +1    1.5041404 +1    0.5555823 +1
  C(HETATM    7  C3  HET D   2)   1.78462456 +1    1.1558157 +1   -0.6981538 +1
  C(HETATM    8  C4  HET D   2)   2.14160425 +1   -0.2023823 +1   -0.8955214 +1
  H(HETATM    9  H   HET E   1)  -2.58695677 +1    0.7985010 +1    0.8548541 +1
  C(HETATM   10  C   HET F   2)   0.59208016 +1   -1.8397769 +1    2.0672405 +1
 XX(HETATM   11 XX   HET K   1)   1.40499769 +1  100.9232714 +1   97.8122550 +1     7     6     4
  H(HETATM   11 1H1  HET K   1)   0.10000000 -1  180.0000000 +0    0.0000000 +0    11     7     6
  H(HETATM   12 2H1  HET K   1)  -0.74313126 +1    0.2041611 +1   -2.3936176 +1
  H(HETATM   13 3H1  HET K   1)  -0.68066958 +1    1.9524416 +1   -2.8106214 +1
  H(HETATM   14  H2  HET K   1)  -1.64256311 +1    2.5413037 +1   -0.5971635 +1
  H(HETATM   15  H1  HET D   2)   0.34443031 +1    0.7474299 +1    2.3976963 +1
  H(HETATM   16  H2  HET D   2)   1.05838386 +1    2.5541978 +1    0.8063173 +1
  H(HETATM   17  H3  HET D   2)   2.22882933 +1    1.9374272 +1   -1.3359638 +1
  H(HETATM   18  H4  HET D   2)   2.70461962 +1   -0.4920011 +1   -1.7859423 +1
  H(HETATM   19 1H   HET F   2)   0.61036008 +1   -1.5028210 +1    3.1221524 +1
  H(HETATM   20 2H   HET F   2)   1.20554112 +1   -2.7600585 +1    2.0091492 +1
  H(HETATM   21 3H   HET F   2)  -0.45524205 +1   -2.1081292 +1    1.8101146 +1
  C(HETATM   22  C1  HET K   1)   1.40499769 +0  162.2784944 +1  -35.3659589 +1    11     7     6
  C(HETATM   23  C2  HET K   1)  -1.50139870 +1    1.5075758 +1   -0.8571159 +1
  H(HETATM   24  H   HET B   2)   1.96091312 +1   -2.2319364 +1   -0.1350595 +1
 
  11  1   23
 

          Geometry optimization using EF

          DIAGONAL MATRIX USED AS START HESSIAN

 CYCLE:     1 TIME:   0.016 TIME LEFT:  2.00D  GRAD.:    36.631 HEAT:  23.95104
 CYCLE:     2 TIME:   0.125 TIME LEFT:  2.00D  GRAD.:    35.546 HEAT:  23.89358
 CYCLE:     3 TIME:   0.031 TIME LEFT:  2.00D  GRAD.:    33.844 HEAT:  23.84011
 CYCLE:     4 TIME:   0.016 TIME LEFT:  2.00D  GRAD.:    28.223 HEAT:  23.80816
 CYCLE:     5 TIME:   0.031 TIME LEFT:  2.00D  GRAD.:    23.376 HEAT:  23.75193
 CYCLE:     6 TIME:   0.016 TIME LEFT:  2.00D  GRAD.:    15.043 HEAT:  23.70248
 CYCLE:     7 TIME:   0.016 TIME LEFT:  2.00D  GRAD.:    16.686 HEAT:  23.68801
 CYCLE:     8 TIME:   0.016 TIME LEFT:  2.00D  GRAD.:    17.163 HEAT:  23.64539
 CYCLE:     9 TIME:   0.062 TIME LEFT:  2.00D  GRAD.:     4.704 HEAT:  23.63350
 CYCLE:    10 TIME:   0.031 TIME LEFT:  2.00D  GRAD.:     8.471 HEAT:  23.63040
 CYCLE:    11 TIME:   0.016 TIME LEFT:  2.00D  GRAD.:     5.959 HEAT:  23.61746
 CYCLE:    12 TIME:   0.078 TIME LEFT:  2.00D  GRAD.:     3.878 HEAT:  23.61287
 CYCLE:    13 TIME:   0.012 TIME LEFT:  2.00D  GRAD.:     3.030 HEAT:  23.61273
 CYCLE:    14 TIME:   0.066 TIME LEFT:  2.00D  GRAD.:     3.548 HEAT:  23.60743
 CYCLE:    15 TIME:   0.078 TIME LEFT:  2.00D  GRAD.:     3.140 HEAT:  23.61250
 CYCLE:    16 TIME:   0.059 TIME LEFT:  2.00D  GRAD.:     5.372 HEAT:  23.60973
 CYCLE:    17 TIME:   0.047 TIME LEFT:  2.00D  GRAD.:     2.189 HEAT:  23.61939
 CYCLE:    18 TIME:   0.016 TIME LEFT:  2.00D  GRAD.:     4.324 HEAT:  23.61651
 CYCLE:    19 TIME:   0.047 TIME LEFT:  2.00D  GRAD.:     2.768 HEAT:  23.61804
 CYCLE:    20 TIME:   0.078 TIME LEFT:  2.00D  GRAD.:     2.034 HEAT:  23.61779
 CYCLE:    21 TIME:   0.047 TIME LEFT:  2.00D  GRAD.:     1.337 HEAT:  23.62752
 CYCLE:    22 TIME:   0.047 TIME LEFT:  2.00D  GRAD.:     4.764 HEAT:  23.63236
 CYCLE:    23 TIME:   0.062 TIME LEFT:  2.00D  GRAD.:     4.734 HEAT:  23.63919
 CYCLE:    24 TIME:   0.031 TIME LEFT:  2.00D  GRAD.:     2.973 HEAT:  23.63799

     TRUST RADIUS NOW LESS THAN  0.00010 OPTIMIZATION TERMINATING
      THE GEOMETRY MAY NOT BE COMPLETELY OPTIMIZED
      (TO CONTINUE, ADD 'LET DDMIN=0.0' TO THE KEYWORD LINE)

          VARIABLE        FUNCTION
 :         0.15000       23.607452
 eps=78.4 HTML(nores) symmetry  step=0.05 points=10
 Search for the transition state for the exemplar intermediate <=> product using a symmetry-defined dummy atom

  O(HETATM    1  O   HET A   1)  -1.92765923 +1   -0.7182261 +1   -0.2339263 +1
  C(HETATM    2  C   HET B   2)   1.74568850 +1   -1.1626533 +1    0.0183382 +1
  C(HETATM    3  C   HET C   1)  -2.01302981 +1    0.5256822 +1   -0.0488007 +1
  C(HETATM    4  C1  HET D   2)   0.84223785 +1    0.5101295 +1    1.4429135 +1
  N(HETATM    5  N   HET D   2)   1.08258590 +1   -0.8023232 +1    1.1589619 +1
  C(HETATM    6  C2  HET D   2)   1.23466144 +1    1.5037815 +1    0.5582269 +1
  C(HETATM    7  C3  HET D   2)   1.81245690 +1    1.1545116 +1   -0.6795368 +1
  C(HETATM    8  C4  HET D   2)   2.14660597 +1   -0.1998330 +1   -0.8913345 +1
  H(HETATM    9  H   HET E   1)  -2.58473051 +1    0.8019976 +1    0.8523649 +1
  C(HETATM   10  C   HET F   2)   0.59102357 +1   -1.8401871 +1    2.0674605 +1
 XX(HETATM   11 XX   HET K   1)   1.41852217 +1  100.0404378 +1   98.0346651 +1     7     6     4
  H(HETATM   11 1H1  HET K   1)   0.15000000 -1  180.0000000 +0    0.0000000 +0    11     7     6
  H(HETATM   12 2H1  HET K   1)  -0.75161687 +1    0.2071666 +1   -2.4004646 +1
  H(HETATM   13 3H1  HET K   1)  -0.69768999 +1    1.9498274 +1   -2.8207744 +1
  H(HETATM   14  H2  HET K   1)  -1.64097663 +1    2.5421547 +1   -0.6024124 +1
  H(HETATM   15  H1  HET D   2)   0.34109964 +1    0.7475723 +1    2.3967064 +1
  H(HETATM   16  H2  HET D   2)   1.05762682 +1    2.5539230 +1    0.8068549 +1
  H(HETATM   17  H3  HET D   2)   2.22184399 +1    1.9364380 +1   -1.3392772 +1
  H(HETATM   18  H4  HET D   2)   2.69996536 +1   -0.4938814 +1   -1.7877839 +1
  H(HETATM   19 1H   HET F   2)   0.60963546 +1   -1.5031903 +1    3.1226667 +1
  H(HETATM   20 2H   HET F   2)   1.20386930 +1   -2.7610334 +1    2.0099113 +1
  H(HETATM   21 3H   HET F   2)  -0.45706497 +1   -2.1079293 +1    1.8103777 +1
  C(HETATM   22  C1  HET K   1)   1.41852217 +0  162.7414423 +1  -35.1405132 +1    11     7     6
  C(HETATM   23  C2  HET K   1)  -1.50237667 +1    1.5079915 +1   -0.8585098 +1
  H(HETATM   24  H   HET B   2)   1.95761813 +1   -2.2332635 +1   -0.1378081 +1
 
  11  1   23
 

          Geometry optimization using EF

          DIAGONAL MATRIX USED AS START HESSIAN

 CYCLE:     1 TIME:   0.031 TIME LEFT:  2.00D  GRAD.:    26.793 HEAT:  19.57084
 CYCLE:     2 TIME:   0.141 TIME LEFT:  2.00D  GRAD.:    30.517 HEAT:  19.54915
 CYCLE:     3 TIME:   0.016 TIME LEFT:  2.00D  GRAD.:    18.087 HEAT:  19.51633
 CYCLE:     4 TIME:   0.016 TIME LEFT:  2.00D  GRAD.:    19.850 HEAT:  19.49862
 CYCLE:     5 TIME:   0.031 TIME LEFT:  2.00D  GRAD.:    13.338 HEAT:  19.46869
 CYCLE:     6 TIME:   0.016 TIME LEFT:  2.00D  GRAD.:     8.074 HEAT:  19.41351
 CYCLE:     7 TIME:   0.031 TIME LEFT:  2.00D  GRAD.:     6.760 HEAT:  19.37897
 CYCLE:     8 TIME:   0.016 TIME LEFT:  2.00D  GRAD.:     8.443 HEAT:  19.35085
 CYCLE:     9 TIME:   0.031 TIME LEFT:  2.00D  GRAD.:     4.918 HEAT:  19.33475
 CYCLE:    10 TIME:   0.047 TIME LEFT:  2.00D  GRAD.:     7.419 HEAT:  19.31617
 CYCLE:    11 TIME:   0.016 TIME LEFT:  2.00D  GRAD.:     6.854 HEAT:  19.30099
 CYCLE:    12 TIME:   0.094 TIME LEFT:  2.00D  GRAD.:     3.513 HEAT:  19.30219
 CYCLE:    13 TIME:   0.031 TIME LEFT:  2.00D  GRAD.:     2.271 HEAT:  19.29960
 CYCLE:    14 TIME:   0.031 TIME LEFT:  2.00D  GRAD.:    15.662 HEAT:  19.28037
 CYCLE:    15 TIME:   0.062 TIME LEFT:  2.00D  GRAD.:     4.159 HEAT:  19.27603
 CYCLE:    16 TIME:   0.031 TIME LEFT:  2.00D  GRAD.:     6.289 HEAT:  19.28036
 CYCLE:    17 TIME:   0.016 TIME LEFT:  2.00D  GRAD.:     7.425 HEAT:  19.26186
 CYCLE:    18 TIME:   0.078 TIME LEFT:  2.00D  GRAD.:     2.438 HEAT:  19.25808
 CYCLE:    19 TIME:   0.047 TIME LEFT:  2.00D  GRAD.:     1.397 HEAT:  19.24624
 CYCLE:    20 TIME:   0.016 TIME LEFT:  2.00D  GRAD.:     1.297 HEAT:  19.24796
 CYCLE:    21 TIME:   0.047 TIME LEFT:  2.00D  GRAD.:     2.807 HEAT:  19.25399
 CYCLE:    22 TIME:   0.188 TIME LEFT:  2.00D  GRAD.:     2.226 HEAT:  19.25390
 CYCLE:    23 TIME:   0.188 TIME LEFT:  2.00D  GRAD.:     1.846 HEAT:  19.25646
 CYCLE:    24 TIME:   0.156 TIME LEFT:  2.00D  GRAD.:     1.009 HEAT:  19.26580
 CYCLE:    25 TIME:   0.078 TIME LEFT:  2.00D  GRAD.:     1.615 HEAT:  19.27199
 CYCLE:    26 TIME:   0.062 TIME LEFT:  2.00D  GRAD.:     2.554 HEAT:  19.27117
 CYCLE:    27 TIME:   0.090 TIME LEFT:  2.00D  GRAD.:     4.170 HEAT:  19.27471
 CYCLE:    28 TIME:   0.047 TIME LEFT:  2.00D  GRAD.:     1.928 HEAT:  19.27378
 CYCLE:    29 TIME:   0.078 TIME LEFT:  2.00D  GRAD.:     2.527 HEAT:  19.26889
 CYCLE:    30 TIME:   0.125 TIME LEFT:  2.00D  GRAD.:     1.630 HEAT:  19.27139

     TRUST RADIUS NOW LESS THAN  0.00010 OPTIMIZATION TERMINATING
      THE GEOMETRY MAY NOT BE COMPLETELY OPTIMIZED
      (TO CONTINUE, ADD 'LET DDMIN=0.0' TO THE KEYWORD LINE)

          VARIABLE        FUNCTION
 :         0.20000       19.246220
 eps=78.4 HTML(nores) symmetry  step=0.05 points=10
 Search for the transition state for the exemplar intermediate <=> product using a symmetry-defined dummy atom

  O(HETATM    1  O   HET A   1)  -1.92086363 +1   -0.7151717 +1   -0.2268810 +1
  C(HETATM    2  C   HET B   2)   1.74867936 +1   -1.1639087 +1    0.0225025 +1
  C(HETATM    3  C   HET C   1)  -2.01157534 +1    0.5314784 +1   -0.0489597 +1
  C(HETATM    4  C1  HET D   2)   0.84751288 +1    0.5084115 +1    1.4455192 +1
  N(HETATM    5  N   HET D   2)   1.08751998 +1   -0.8031295 +1    1.1614466 +1
  C(HETATM    6  C2  HET D   2)   1.24877194 +1    1.5028675 +1    0.5619510 +1
  C(HETATM    7  C3  HET D   2)   1.84171386 +1    1.1537355 +1   -0.6637244 +1
  C(HETATM    8  C4  HET D   2)   2.15660639 +1   -0.1991540 +1   -0.8860086 +1
  H(HETATM    9  H   HET E   1)  -2.58211225 +1    0.8085382 +1    0.8526081 +1
  C(HETATM   10  C   HET F   2)   0.58963574 +1   -1.8403458 +1    2.0679891 +1
 XX(HETATM   11 XX   HET K   1)   1.43832070 +1   98.9671853 +1   97.7134342 +1     7     6     4
  H(HETATM   11 1H1  HET K   1)   0.20000000 -1  180.0000000 +0    0.0000000 +0    11     7     6
  H(HETATM   12 2H1  HET K   1)  -0.77186637 +1    0.2081274 +1   -2.4114745 +1
  H(HETATM   13 3H1  HET K   1)  -0.73004738 +1    1.9446118 +1   -2.8347769 +1
  H(HETATM   14  H2  HET K   1)  -1.64189134 +1    2.5457080 +1   -0.6114347 +1
  H(HETATM   15  H1  HET D   2)   0.33589324 +1    0.7470526 +1    2.3934311 +1
  H(HETATM   16  H2  HET D   2)   1.06172087 +1    2.5526996 +1    0.8088547 +1
  H(HETATM   17  H3  HET D   2)   2.22880456 +1    1.9346177 +1   -1.3364194 +1
  H(HETATM   18  H4  HET D   2)   2.69935026 +1   -0.4983784 +1   -1.7881586 +1
  H(HETATM   19 1H   HET F   2)   0.60686427 +1   -1.5050396 +1    3.1238395 +1
  H(HETATM   20 2H   HET F   2)   1.19917633 +1   -2.7637142 +1    2.0114961 +1
  H(HETATM   21 3H   HET F   2)  -0.45930621 +1   -2.1044148 +1    1.8084324 +1
  C(HETATM   22  C1  HET K   1)   1.43832070 +0  163.8769475 +1  -34.7528359 +1    11     7     6
  C(HETATM   23  C2  HET K   1)  -1.50956923 +1    1.5104221 +1   -0.8636328 +1
  H(HETATM   24  H   HET B   2)   1.94675599 +1   -2.2363580 +1   -0.1424453 +1
 
  11  1   23
 

                POINTS ON REACTION PATH 
                AND CORRESPONDING HEATS


      -0.25000000      -0.20000000      -0.15000000      -0.10000000      -0.05000000      -0.00000000       0.05000000       0.10000000
      10.97401637      14.82943381      18.52763224      23.03378230      27.80845538      32.08762108      31.40052599      27.91106038
       0.15000000       0.20000000
      23.60745207      19.24621992

 **********************
 *                    *
 * JOB ENDED NORMALLY *
 *                    *
 **********************



 TOTAL JOB TIME:            14.32 SECONDS

 == MOPAC DONE ==
