 *******************************************************************************
 ** Cite this program as: MOPAC2016, Version: 22.066W, James J. P. Stewart,   **
 **                           web-site: HTTP://OpenMOPAC.net.                 **
 *******************************************************************************
 **                                                                           **
 **                                MOPAC2016                                  **
 **                                                                           **
 *******************************************************************************

                              PM7 CALCULATION RESULTS

 *******************************************************************************
 *  CALCULATION DONE:                                Tue Apr 12 19:58:09 2022  *
 *  PM7        - The PM7 Hamiltonian to be used
 *
 *
 *
 *                 CHARGE ON SYSTEM = -1
 *
 *
 *
 *  XYZ        - CARTESIAN COORDINATE SYSTEM TO BE USED
 *  SADDLE     - TRANSITION STATE TO BE OPTIMIZED
 *  T=         - A TIME OF 172800.0 SECONDS REQUESTED
 *  DUMP=N     - RESTART FILE WRITTEN EVERY 7200.0 SECONDS REQUESTED
 *******************************************************************************
PM7 SADDLE XYZ CHARGE=-1


   ATOM   CHEMICAL          X               Y               Z
  NUMBER   SYMBOL      (ANGSTROMS)     (ANGSTROMS)     (ANGSTROMS)
 
     1       C          0.00000000  *   0.00000000  *   0.00000000  *
     2      Cl          2.86654200  *   0.00000000  *   0.00000000  *
     3       H          0.31475494  *   1.06221089  *   0.00000000  *
     4       H          0.34875067  *  -0.51084588  *  -0.91960780  *
     5       H          0.37922942  *  -0.51994161  *   0.90280509  *
     6      Br         -1.94658386  *  -0.05711907  *   0.03059357  *
 


          CARTESIAN COORDINATES 

    NO.       ATOM           X           Y           Z

     1         C          0.0000      0.0000      0.0000
     2        Cl          2.8665      0.0000      0.0000
     3         H          0.3148      1.0622      0.0000
     4         H          0.3488     -0.5108     -0.9196
     5         H          0.3792     -0.5199      0.9028
     6        Br         -1.9466     -0.0571      0.0306

 General Reference for PM7:
 "Optimization of Parameters for Semiempirical Methods VI: More Modifications to the 
 NDDO Approximations and Re-optimization of Parameters", J. J. P. Stewart, J. Mol. Mod., 1:32, 19 (2013)
 https://link.springer.com/article/10.1007/s00894-012-1667-x

           Empirical Formula: C H3 Cl Br  =     6 atoms



      MOLECULAR POINT GROUP   :   C3  


      RHF CALCULATION, NO. OF DOUBLY OCCUPIED LEVELS = 11



  CARTESIAN GEOMETRY OF FIRST SYSTEM


   1    C          0.00000       0.00000       0.00000
   2   Cl          1.78095       0.00000       0.00000
   3    H         -0.33438       1.05824       0.00000
   4    H         -0.33523      -0.52867      -0.91614
   5    H         -0.33651      -0.52864       0.91589
   6   Br         -3.09521       0.00057      -0.00100


  CARTESIAN GEOMETRY OF SECOND SYSTEM


   1    C         -0.71370       0.00975      -0.00539
   2   Cl          2.15236      -0.03605       0.01968
   3    H         -0.38198       1.06678      -0.00798
   4    H         -0.36522      -0.51135      -0.91933
   5    H         -0.35069      -0.51151       0.90330
   6   Br         -2.66114      -0.01611       0.00846


   "DISTANCE":     0.917703


  REACTION COORDINATE VECTOR


   1    C          0.71370      -0.00975       0.00539
   2   Cl         -0.37141       0.03605      -0.01968
   3    H          0.04761      -0.00854       0.00798
   4    H          0.02999      -0.01731       0.00319
   5    H          0.01418      -0.01712       0.01259
   6   Br         -0.43407       0.01668      -0.00947
 *+*+*+*+*+*+*+*+*+*+*+*+*+*+*+*+*+*+*+*+*+*+*+*+*+*+*+*+*+*+*+*+*+*+*+*+*+*+*+*+
            BAR SHORTENED BY       0.000 PERCENT
 GRADIENT CRITERION IN FLEPO =     1.000


          FOR POINT    1 SECOND STRUCTURE
 DISTANCE A - B      0.917703
 HEAT              -82.585861
 GRADIENT NORM       5.114742
 DIRECTION COSINE   -0.000000
 PM7 XYZ CHARGE=-1


  C     0.00056569 +1  -0.00462707 +1  -0.00460262 +1
 Cl     1.80870499 +1  -0.01319704 +1  -0.00899508 +1
  H    -0.32053506 +1   1.03811048 +1  -0.00712659 +1
  H    -0.32792807 +1  -0.52148278 +1  -0.90773818 +1
  H    -0.32643527 +1  -0.51777483 +1   0.90217737 +1
 Br    -3.11349887 +1   0.00911322 +1  -0.00669851 +1
 
 TIME=     0.03
  REACTANTS AND PRODUCTS SWAPPED AROUND
 *+*+*+*+*+*+*+*+*+*+*+*+*+*+*+*+*+*+*+*+*+*+*+*+*+*+*+*+*+*+*+*+*+*+*+*+*+*+*+*+
            BAR SHORTENED BY       1.000 PERCENT
 GRADIENT CRITERION IN FLEPO =     2.115


          FOR POINT    2 FIRST  STRUCTURE
 DISTANCE A - B      0.908526
 HEAT              -77.740044
 GRADIENT NORM       2.202619
 DIRECTION COSINE    0.776314
 PM7 XYZ CHARGE=-1


  C    -0.71473037 +1   0.01481053 +1  -0.01090500 +1
 Cl     2.16368237 +1  -0.02542194 +1   0.01125019 +1
  H    -0.38591112 +1   1.05591204 +1  -0.01724991 +1
  H    -0.36960445 +1  -0.50131176 +1  -0.90963857 +1
  H    -0.35231795 +1  -0.49643852 +1   0.88296734 +1
 Br    -2.69197573 +1  -0.01503095 +1   0.00692885 +1
 
 TIME=     0.03
  REACTANTS AND PRODUCTS SWAPPED AROUND
 *+*+*+*+*+*+*+*+*+*+*+*+*+*+*+*+*+*+*+*+*+*+*+*+*+*+*+*+*+*+*+*+*+*+*+*+*+*+*+*+
            BAR SHORTENED BY       1.000 PERCENT
 GRADIENT CRITERION IN FLEPO =     2.115


          FOR POINT    3 SECOND STRUCTURE
 DISTANCE A - B      0.899441
 HEAT              -82.536623
 GRADIENT NORM       6.701511
 DIRECTION COSINE    0.703692
 PM7 XYZ CHARGE=-1


  C    -0.00642927 +1  -0.00282151 +1  -0.00359467 +1
 Cl     1.80630138 +1  -0.01058694 +1  -0.00458652 +1
  H    -0.32450176 +1   1.04115876 +1  -0.00484204 +1
  H    -0.33015667 +1  -0.52257200 +1  -0.90886162 +1
  H    -0.33049827 +1  -0.52350665 +1   0.90089159 +1
 Br    -3.10504004 +1   0.00351012 +1  -0.00304803 +1
 
 *+*+*+*+*+*+*+*+*+*+*+*+*+*+*+*+*+*+*+*+*+*+*+*+*+*+*+*+*+*+*+*+*+*+*+*+*+*+*+*+
            BAR SHORTENED BY       1.000 PERCENT
 GRADIENT CRITERION IN FLEPO =     3.702


          FOR POINT    4 SECOND STRUCTURE
 DISTANCE A - B      0.890446
 HEAT              -82.458472
 GRADIENT NORM      11.439735
 DIRECTION COSINE    0.950813
 PM7 XYZ CHARGE=-1


  C    -0.01351228 +1  -0.00264519 +1  -0.00366777 +1
 Cl     1.80987519 +1  -0.01073529 +1  -0.00442816 +1
  H    -0.32511585 +1   1.04130629 +1  -0.00496611 +1
  H    -0.33055115 +1  -0.52235940 +1  -0.90886938 +1
  H    -0.33071647 +1  -0.52323597 +1   0.90071235 +1
 Br    -3.10090940 +1   0.00332471 +1  -0.00294826 +1
 
 *+*+*+*+*+*+*+*+*+*+*+*+*+*+*+*+*+*+*+*+*+*+*+*+*+*+*+*+*+*+*+*+*+*+*+*+*+*+*+*+
            BAR SHORTENED BY       1.000 PERCENT
 GRADIENT CRITERION IN FLEPO =     8.440


          FOR POINT    5 SECOND STRUCTURE
 DISTANCE A - B      0.881542
 HEAT              -82.341952
 GRADIENT NORM      16.320808
 DIRECTION COSINE    0.992437
 PM7 XYZ CHARGE=-1


  C    -0.02052446 +1  -0.00247064 +1  -0.00374014 +1
 Cl     1.81341327 +1  -0.01088216 +1  -0.00427137 +1
  H    -0.32572381 +1   1.04145235 +1  -0.00508895 +1
  H    -0.33094168 +1  -0.52214892 +1  -0.90887708 +1
  H    -0.33093248 +1  -0.52296800 +1   0.90053490 +1
 Br    -3.09682006 +1   0.00314116 +1  -0.00284949 +1
 
 TIME=     0.04
  REACTANTS AND PRODUCTS SWAPPED AROUND
 *+*+*+*+*+*+*+*+*+*+*+*+*+*+*+*+*+*+*+*+*+*+*+*+*+*+*+*+*+*+*+*+*+*+*+*+*+*+*+*+
            BAR SHORTENED BY       0.000 PERCENT
 GRADIENT CRITERION IN FLEPO =    10.000


          FOR POINT    6 FIRST  STRUCTURE
 DISTANCE A - B      0.881542
 HEAT              -77.740044
 GRADIENT NORM       2.202626
 DIRECTION COSINE    0.731254
 PM7 XYZ CHARGE=-1


  C    -0.71473037 +1   0.01481053 +1  -0.01090500 +1
 Cl     2.16368237 +1  -0.02542194 +1   0.01125019 +1
  H    -0.38591112 +1   1.05591204 +1  -0.01724991 +1
  H    -0.36960445 +1  -0.50131176 +1  -0.90963857 +1
  H    -0.35231795 +1  -0.49643852 +1   0.88296734 +1
 Br    -2.69197573 +1  -0.01503095 +1   0.00692885 +1
 
 TIME=     0.01
  REACTANTS AND PRODUCTS SWAPPED AROUND
 *+*+*+*+*+*+*+*+*+*+*+*+*+*+*+*+*+*+*+*+*+*+*+*+*+*+*+*+*+*+*+*+*+*+*+*+*+*+*+*+
            BAR SHORTENED BY       1.000 PERCENT
 GRADIENT CRITERION IN FLEPO =    10.000


          FOR POINT    7 SECOND STRUCTURE
 DISTANCE A - B      0.872727
 HEAT              -82.190242
 GRADIENT NORM      21.032527
 DIRECTION COSINE    0.724307
 PM7 XYZ CHARGE=-1


  C    -0.02746652 +1  -0.00229782 +1  -0.00381179 +1
 Cl     1.81691596 +1  -0.01102756 +1  -0.00411616 +1
  H    -0.32632568 +1   1.04159695 +1  -0.00521056 +1
  H    -0.33132831 +1  -0.52194055 +1  -0.90888469 +1
  H    -0.33114634 +1  -0.52270270 +1   0.90035922 +1
 Br    -3.09277162 +1   0.00295944 +1  -0.00275171 +1
 
 *+*+*+*+*+*+*+*+*+*+*+*+*+*+*+*+*+*+*+*+*+*+*+*+*+*+*+*+*+*+*+*+*+*+*+*+*+*+*+*+
            BAR SHORTENED BY       1.000 PERCENT
 GRADIENT CRITERION IN FLEPO =    10.000


          FOR POINT    8 SECOND STRUCTURE
 DISTANCE A - B      0.863999
 HEAT              -82.006320
 GRADIENT NORM      25.513627
 DIRECTION COSINE    0.999145
 PM7 XYZ CHARGE=-1


  C    -0.03433916 +1  -0.00212674 +1  -0.00388272 +1
 Cl     1.82038362 +1  -0.01117150 +1  -0.00396249 +1
  H    -0.32692153 +1   1.04174010 +1  -0.00533096 +1
  H    -0.33171107 +1  -0.52173426 +1  -0.90889223 +1
  H    -0.33135805 +1  -0.52244006 +1   0.90018530 +1
 Br    -3.08876366 +1   0.00277953 +1  -0.00265490 +1
 
 *+*+*+*+*+*+*+*+*+*+*+*+*+*+*+*+*+*+*+*+*+*+*+*+*+*+*+*+*+*+*+*+*+*+*+*+*+*+*+*+
            BAR SHORTENED BY       1.000 PERCENT
 GRADIENT CRITERION IN FLEPO =    10.000


          FOR POINT    9 SECOND STRUCTURE
 DISTANCE A - B      0.855359
 HEAT              -82.067753
 GRADIENT NORM      18.054755
 DIRECTION COSINE    0.864910
 PM7 XYZ CHARGE=-1


  C    -0.04244225 +1  -0.00114076 +1  -0.00414019 +1
 Cl     1.79324353 +1   0.00863530 +1   0.00369135 +1
  H    -0.33867732 +1   1.05340503 +1  -0.00267374 +1
  H    -0.33669406 +1  -0.52177441 +1  -0.91153069 +1
  H    -0.33457549 +1  -0.52203463 +1   0.90189540 +1
 Br    -3.06024177 +1  -0.01046978 +1   0.00555045 +1
 
 TIME=     0.03
  REACTANTS AND PRODUCTS SWAPPED AROUND
 *+*+*+*+*+*+*+*+*+*+*+*+*+*+*+*+*+*+*+*+*+*+*+*+*+*+*+*+*+*+*+*+*+*+*+*+*+*+*+*+
            BAR SHORTENED BY       0.000 PERCENT
 GRADIENT CRITERION IN FLEPO =    10.000


          FOR POINT   10 FIRST  STRUCTURE
 DISTANCE A - B      0.855359
 HEAT              -77.740044
 GRADIENT NORM       2.202626
 DIRECTION COSINE    0.536377
 PM7 XYZ CHARGE=-1


  C    -0.71473037 +1   0.01481053 +1  -0.01090500 +1
 Cl     2.16368237 +1  -0.02542194 +1   0.01125019 +1
  H    -0.38591112 +1   1.05591204 +1  -0.01724991 +1
  H    -0.36960445 +1  -0.50131176 +1  -0.90963857 +1
  H    -0.35231795 +1  -0.49643852 +1   0.88296734 +1
 Br    -2.69197573 +1  -0.01503095 +1   0.00692885 +1
 
 TIME=     0.01
  REACTANTS AND PRODUCTS SWAPPED AROUND
 *+*+*+*+*+*+*+*+*+*+*+*+*+*+*+*+*+*+*+*+*+*+*+*+*+*+*+*+*+*+*+*+*+*+*+*+*+*+*+*+
            BAR SHORTENED BY       1.000 PERCENT
 GRADIENT CRITERION IN FLEPO =    10.000


          FOR POINT   11 SECOND STRUCTURE
 DISTANCE A - B      0.846806
 HEAT              -81.915709
 GRADIENT NORM      22.035684
 DIRECTION COSINE    0.584654
 PM7 XYZ CHARGE=-1


  C    -0.04916513 +1  -0.00098124 +1  -0.00420784 +1
 Cl     1.79694792 +1   0.00829473 +1   0.00376694 +1
  H    -0.33914966 +1   1.05343010 +1  -0.00281951 +1
  H    -0.33702316 +1  -0.52156978 +1  -0.91151177 +1
  H    -0.33475291 +1  -0.52177867 +1   0.90170612 +1
 Br    -3.05655911 +1  -0.01051539 +1   0.00556424 +1
 
 *+*+*+*+*+*+*+*+*+*+*+*+*+*+*+*+*+*+*+*+*+*+*+*+*+*+*+*+*+*+*+*+*+*+*+*+*+*+*+*+
            BAR SHORTENED BY       1.000 PERCENT
 GRADIENT CRITERION IN FLEPO =    10.000


          FOR POINT   12 SECOND STRUCTURE
 DISTANCE A - B      0.838338
 HEAT              -81.829446
 GRADIENT NORM      21.723930
 DIRECTION COSINE    0.962582
 PM7 XYZ CHARGE=-1


  C    -0.05290213 +1   0.00138624 +1  -0.00268192 +1
 Cl     1.79799746 +1   0.00547904 +1   0.00676162 +1
  H    -0.36161189 +1   1.05155418 +1  -0.00134739 +1
  H    -0.33993662 +1  -0.52296452 +1  -0.91330129 +1
  H    -0.33889908 +1  -0.52347621 +1   0.90405990 +1
 Br    -3.04730764 +1  -0.01319792 +1   0.00729237 +1
 
 *+*+*+*+*+*+*+*+*+*+*+*+*+*+*+*+*+*+*+*+*+*+*+*+*+*+*+*+*+*+*+*+*+*+*+*+*+*+*+*+
            BAR SHORTENED BY       1.000 PERCENT
 GRADIENT CRITERION IN FLEPO =    10.000


          FOR POINT   13 SECOND STRUCTURE
 DISTANCE A - B      0.829954
 HEAT              -81.642375
 GRADIENT NORM      25.588815
 DIRECTION COSINE    0.996595
 PM7 XYZ CHARGE=-1


  C    -0.05952041 +1   0.00152048 +1  -0.00276415 +1
 Cl     1.80165431 +1   0.00517003 +1   0.00680651 +1
  H    -0.36185488 +1   1.05159776 +1  -0.00150642 +1
  H    -0.34023330 +1  -0.52274799 +1  -0.91326466 +1
  H    -0.33903327 +1  -0.52320583 +1   0.90384897 +1
 Br    -3.04375432 +1  -0.01321625 +1   0.00728874 +1
 
 TIME=     0.04
  REACTANTS AND PRODUCTS SWAPPED AROUND
 *+*+*+*+*+*+*+*+*+*+*+*+*+*+*+*+*+*+*+*+*+*+*+*+*+*+*+*+*+*+*+*+*+*+*+*+*+*+*+*+
            BAR SHORTENED BY       0.000 PERCENT
 GRADIENT CRITERION IN FLEPO =    10.000


          FOR POINT   14 FIRST  STRUCTURE
 DISTANCE A - B      0.829954
 HEAT              -77.740044
 GRADIENT NORM       2.202626
 DIRECTION COSINE    0.643248
 PM7 XYZ CHARGE=-1


  C    -0.71473037 +1   0.01481053 +1  -0.01090500 +1
 Cl     2.16368237 +1  -0.02542194 +1   0.01125019 +1
  H    -0.38591112 +1   1.05591204 +1  -0.01724991 +1
  H    -0.36960445 +1  -0.50131176 +1  -0.90963857 +1
  H    -0.35231795 +1  -0.49643852 +1   0.88296734 +1
 Br    -2.69197573 +1  -0.01503095 +1   0.00692885 +1
 
 TIME=     0.01
  REACTANTS AND PRODUCTS SWAPPED AROUND
 *+*+*+*+*+*+*+*+*+*+*+*+*+*+*+*+*+*+*+*+*+*+*+*+*+*+*+*+*+*+*+*+*+*+*+*+*+*+*+*+
            BAR SHORTENED BY       1.000 PERCENT
 GRADIENT CRITERION IN FLEPO =    10.000


          FOR POINT   15 SECOND STRUCTURE
 DISTANCE A - B      0.821655
 HEAT              -81.428072
 GRADIENT NORM      29.318940
 DIRECTION COSINE    0.656001
 PM7 XYZ CHARGE=-1


  C    -0.06607251 +1   0.00165339 +1  -0.00284555 +1
 Cl     1.80527459 +1   0.00486411 +1   0.00685095 +1
  H    -0.36209544 +1   1.05164090 +1  -0.00166385 +1
  H    -0.34052701 +1  -0.52253363 +1  -0.91322840 +1
  H    -0.33916612 +1  -0.52293816 +1   0.90364015 +1
 Br    -3.04023654 +1  -0.01323440 +1   0.00728514 +1
 
 *+*+*+*+*+*+*+*+*+*+*+*+*+*+*+*+*+*+*+*+*+*+*+*+*+*+*+*+*+*+*+*+*+*+*+*+*+*+*+*+
            BAR SHORTENED BY       1.000 PERCENT
 GRADIENT CRITERION IN FLEPO =    10.000


          FOR POINT   16 SECOND STRUCTURE
 DISTANCE A - B      0.813438
 HEAT              -81.436825
 GRADIENT NORM      22.761411
 DIRECTION COSINE    0.960586
 PM7 XYZ CHARGE=-1


  C    -0.07150757 +1   0.00602777 +1  -0.00367714 +1
 Cl     1.78204329 +1   0.00888567 +1   0.00953993 +1
  H    -0.35883677 +1   1.05729354 +1  -0.00156594 +1
  H    -0.34749277 +1  -0.51312520 +1  -0.91577141 +1
  H    -0.34453730 +1  -0.52258407 +1   0.90510788 +1
 Br    -3.00519461 +1  -0.01582367 +1   0.00636632 +1
 
 *+*+*+*+*+*+*+*+*+*+*+*+*+*+*+*+*+*+*+*+*+*+*+*+*+*+*+*+*+*+*+*+*+*+*+*+*+*+*+*+
            BAR SHORTENED BY       1.000 PERCENT
 GRADIENT CRITERION IN FLEPO =    10.000


          FOR POINT   17 SECOND STRUCTURE
 DISTANCE A - B      0.805304
 HEAT              -81.244487
 GRADIENT NORM      26.376752
 DIRECTION COSINE    0.996946
 PM7 XYZ CHARGE=-1


  C    -0.07793980 +1   0.00611560 +1  -0.00374942 +1
 Cl     1.78585968 +1   0.00854259 +1   0.00955703 +1
  H    -0.35910751 +1   1.05727972 +1  -0.00172278 +1
  H    -0.34771389 +1  -0.51300706 +1  -0.91571008 +1
  H    -0.34461511 +1  -0.52232261 +1   0.90488647 +1
 Br    -3.00206242 +1  -0.01581574 +1   0.00637194 +1
 
 TIME=     0.03
  REACTANTS AND PRODUCTS SWAPPED AROUND
 *+*+*+*+*+*+*+*+*+*+*+*+*+*+*+*+*+*+*+*+*+*+*+*+*+*+*+*+*+*+*+*+*+*+*+*+*+*+*+*+
            BAR SHORTENED BY       0.000 PERCENT
 GRADIENT CRITERION IN FLEPO =    10.000


          FOR POINT   18 FIRST  STRUCTURE
 DISTANCE A - B      0.805304
 HEAT              -77.740044
 GRADIENT NORM       2.202626
 DIRECTION COSINE    0.704608
 PM7 XYZ CHARGE=-1


  C    -0.71473037 +1   0.01481053 +1  -0.01090500 +1
 Cl     2.16368237 +1  -0.02542194 +1   0.01125019 +1
  H    -0.38591112 +1   1.05591204 +1  -0.01724991 +1
  H    -0.36960445 +1  -0.50131176 +1  -0.90963857 +1
  H    -0.35231795 +1  -0.49643852 +1   0.88296734 +1
 Br    -2.69197573 +1  -0.01503095 +1   0.00692885 +1
 
 TIME=     0.01
  REACTANTS AND PRODUCTS SWAPPED AROUND
 *+*+*+*+*+*+*+*+*+*+*+*+*+*+*+*+*+*+*+*+*+*+*+*+*+*+*+*+*+*+*+*+*+*+*+*+*+*+*+*+
            BAR SHORTENED BY       1.000 PERCENT
 GRADIENT CRITERION IN FLEPO =    10.000


          FOR POINT   19 SECOND STRUCTURE
 DISTANCE A - B      0.797251
 HEAT              -81.026913
 GRADIENT NORM      29.856690
 DIRECTION COSINE    0.709833
 PM7 XYZ CHARGE=-1


  C    -0.08430770 +1   0.00620255 +1  -0.00382097 +1
 Cl     1.78963791 +1   0.00820295 +1   0.00957396 +1
  H    -0.35937555 +1   1.05726605 +1  -0.00187806 +1
  H    -0.34793279 +1  -0.51289011 +1  -0.91564937 +1
  H    -0.34469214 +1  -0.52206377 +1   0.90466728 +1
 Br    -2.99896155 +1  -0.01580789 +1   0.00637751 +1
 
 *+*+*+*+*+*+*+*+*+*+*+*+*+*+*+*+*+*+*+*+*+*+*+*+*+*+*+*+*+*+*+*+*+*+*+*+*+*+*+*+
            BAR SHORTENED BY       1.000 PERCENT
 GRADIENT CRITERION IN FLEPO =    10.000


          FOR POINT   20 SECOND STRUCTURE
 DISTANCE A - B      0.789278
 HEAT              -80.786545
 GRADIENT NORM      33.167014
 DIRECTION COSINE    0.999018
 PM7 XYZ CHARGE=-1


  C    -0.09061193 +1   0.00628863 +1  -0.00389182 +1
 Cl     1.79337835 +1   0.00786670 +1   0.00959073 +1
  H    -0.35964090 +1   1.05725251 +1  -0.00203177 +1
  H    -0.34814951 +1  -0.51277433 +1  -0.91558926 +1
  H    -0.34476840 +1  -0.52180752 +1   0.90445028 +1
 Br    -2.99589169 +1  -0.01580012 +1   0.00638303 +1
 
 *+*+*+*+*+*+*+*+*+*+*+*+*+*+*+*+*+*+*+*+*+*+*+*+*+*+*+*+*+*+*+*+*+*+*+*+*+*+*+*+
            BAR SHORTENED BY       1.000 PERCENT
 GRADIENT CRITERION IN FLEPO =    10.000


          FOR POINT   21 SECOND STRUCTURE
 DISTANCE A - B      0.781385
 HEAT              -80.705509
 GRADIENT NORM      29.740253
 DIRECTION COSINE    0.967484
 PM7 XYZ CHARGE=-1


  C    -0.08986852 +1   0.00884970 +1  -0.00284784 +1
 Cl     1.79248963 +1   0.00583917 +1   0.00955246 +1
  H    -0.36703411 +1   1.06466671 +1   0.00343999 +1
  H    -0.35485552 +1  -0.51415143 +1  -0.91751550 +1
  H    -0.35464003 +1  -0.52235851 +1   0.90895560 +1
 Br    -2.97231092 +1  -0.01540501 +1   0.00653450 +1
 
 TIME=     0.03
  REACTANTS AND PRODUCTS SWAPPED AROUND
 *+*+*+*+*+*+*+*+*+*+*+*+*+*+*+*+*+*+*+*+*+*+*+*+*+*+*+*+*+*+*+*+*+*+*+*+*+*+*+*+
            BAR SHORTENED BY       0.000 PERCENT
 GRADIENT CRITERION IN FLEPO =    10.000


          FOR POINT   22 FIRST  STRUCTURE
 DISTANCE A - B      0.781385
 HEAT              -77.740044
 GRADIENT NORM       2.202626
 DIRECTION COSINE    0.719437
 PM7 XYZ CHARGE=-1


  C    -0.71473037 +1   0.01481053 +1  -0.01090500 +1
 Cl     2.16368237 +1  -0.02542194 +1   0.01125019 +1
  H    -0.38591112 +1   1.05591204 +1  -0.01724991 +1
  H    -0.36960445 +1  -0.50131176 +1  -0.90963857 +1
  H    -0.35231795 +1  -0.49643852 +1   0.88296734 +1
 Br    -2.69197573 +1  -0.01503095 +1   0.00692885 +1
 
 TIME=     0.01
  REACTANTS AND PRODUCTS SWAPPED AROUND
 *+*+*+*+*+*+*+*+*+*+*+*+*+*+*+*+*+*+*+*+*+*+*+*+*+*+*+*+*+*+*+*+*+*+*+*+*+*+*+*+
            BAR SHORTENED BY       1.000 PERCENT
 GRADIENT CRITERION IN FLEPO =    10.000


          FOR POINT   23 SECOND STRUCTURE
 DISTANCE A - B      0.773572
 HEAT              -80.466132
 GRADIENT NORM      32.705375
 DIRECTION COSINE    0.724530
 PM7 XYZ CHARGE=-1


  C    -0.09611714 +1   0.00890931 +1  -0.00292842 +1
 Cl     1.79620155 +1   0.00552656 +1   0.00956944 +1
  H    -0.36722288 +1   1.06457916 +1   0.00323309 +1
  H    -0.35500300 +1  -0.51402303 +1  -0.91743673 +1
  H    -0.35461681 +1  -0.52209931 +1   0.90869572 +1
 Br    -2.96950757 +1  -0.01540127 +1   0.00653845 +1
 
 *+*+*+*+*+*+*+*+*+*+*+*+*+*+*+*+*+*+*+*+*+*+*+*+*+*+*+*+*+*+*+*+*+*+*+*+*+*+*+*+
            BAR SHORTENED BY       1.000 PERCENT
 GRADIENT CRITERION IN FLEPO =    10.000


          FOR POINT   24 SECOND STRUCTURE
 DISTANCE A - B      0.765836
 HEAT              -80.207627
 GRADIENT NORM      35.524369
 DIRECTION COSINE    0.998989
 PM7 XYZ CHARGE=-1


  C    -0.10230327 +1   0.00896832 +1  -0.00300818 +1
 Cl     1.79987636 +1   0.00521708 +1   0.00958625 +1
  H    -0.36740976 +1   1.06449249 +1   0.00302826 +1
  H    -0.35514902 +1  -0.51389592 +1  -0.91735875 +1
  H    -0.35459382 +1  -0.52184270 +1   0.90843843 +1
 Br    -2.96673225 +1  -0.01539757 +1   0.00654235 +1
 
 *+*+*+*+*+*+*+*+*+*+*+*+*+*+*+*+*+*+*+*+*+*+*+*+*+*+*+*+*+*+*+*+*+*+*+*+*+*+*+*+
            BAR SHORTENED BY       1.000 PERCENT
 GRADIENT CRITERION IN FLEPO =    10.000


          FOR POINT   25 SECOND STRUCTURE
 DISTANCE A - B      0.758178
 HEAT              -79.931975
 GRADIENT NORM      38.183976
 DIRECTION COSINE    0.999293
 PM7 XYZ CHARGE=-1


  C    -0.10842754 +1   0.00902674 +1  -0.00308715 +1
 Cl     1.80351442 +1   0.00491069 +1   0.00960289 +1
  H    -0.36759477 +1   1.06440669 +1   0.00282548 +1
  H    -0.35529357 +1  -0.51377007 +1  -0.91728154 +1
  H    -0.35457106 +1  -0.52158866 +1   0.90818372 +1
 Br    -2.96398468 +1  -0.01539390 +1   0.00654621 +1
 
 TIME=     0.02
  REACTANTS AND PRODUCTS SWAPPED AROUND
 *+*+*+*+*+*+*+*+*+*+*+*+*+*+*+*+*+*+*+*+*+*+*+*+*+*+*+*+*+*+*+*+*+*+*+*+*+*+*+*+
            BAR SHORTENED BY       0.000 PERCENT
 GRADIENT CRITERION IN FLEPO =    10.000


          FOR POINT   26 FIRST  STRUCTURE
 DISTANCE A - B      0.758178
 HEAT              -77.740044
 GRADIENT NORM       2.202626
 DIRECTION COSINE    0.728587
 PM7 XYZ CHARGE=-1


  C    -0.71473037 +1   0.01481053 +1  -0.01090500 +1
 Cl     2.16368237 +1  -0.02542194 +1   0.01125019 +1
  H    -0.38591112 +1   1.05591204 +1  -0.01724991 +1
  H    -0.36960445 +1  -0.50131176 +1  -0.90963857 +1
  H    -0.35231795 +1  -0.49643852 +1   0.88296734 +1
 Br    -2.69197573 +1  -0.01503095 +1   0.00692885 +1
 
 TIME=     0.01
  REACTANTS AND PRODUCTS SWAPPED AROUND
 *+*+*+*+*+*+*+*+*+*+*+*+*+*+*+*+*+*+*+*+*+*+*+*+*+*+*+*+*+*+*+*+*+*+*+*+*+*+*+*+
            BAR SHORTENED BY       1.000 PERCENT
 GRADIENT CRITERION IN FLEPO =    10.000


          FOR POINT   27 SECOND STRUCTURE
 DISTANCE A - B      0.750596
 HEAT              -79.641263
 GRADIENT NORM      40.678274
 DIRECTION COSINE    0.729067
 PM7 XYZ CHARGE=-1


  C    -0.11449057 +1   0.00908458 +1  -0.00316533 +1
 Cl     1.80711610 +1   0.00460736 +1   0.00961936 +1
  H    -0.36777794 +1   1.06432174 +1   0.00262473 +1
  H    -0.35543668 +1  -0.51364549 +1  -0.91720512 +1
  H    -0.35454853 +1  -0.52133716 +1   0.90793156 +1
 Br    -2.96126459 +1  -0.01539027 +1   0.00655004 +1
 
 *+*+*+*+*+*+*+*+*+*+*+*+*+*+*+*+*+*+*+*+*+*+*+*+*+*+*+*+*+*+*+*+*+*+*+*+*+*+*+*+
            BAR SHORTENED BY       1.000 PERCENT
 GRADIENT CRITERION IN FLEPO =    10.000


          FOR POINT   28 SECOND STRUCTURE
 DISTANCE A - B      0.743090
 HEAT              -79.337234
 GRADIENT NORM      43.006122
 DIRECTION COSINE    0.999603
 PM7 XYZ CHARGE=-1


  C    -0.12049297 +1   0.00914184 +1  -0.00324273 +1
 Cl     1.81068176 +1   0.00430707 +1   0.00963567 +1
  H    -0.36795927 +1   1.06423764 +1   0.00242598 +1
  H    -0.35557836 +1  -0.51352215 +1  -0.91712945 +1
  H    -0.35452623 +1  -0.52108817 +1   0.90768192 +1
 Br    -2.95857170 +1  -0.01538668 +1   0.00655383 +1
 
 *+*+*+*+*+*+*+*+*+*+*+*+*+*+*+*+*+*+*+*+*+*+*+*+*+*+*+*+*+*+*+*+*+*+*+*+*+*+*+*+
            BAR SHORTENED BY       1.000 PERCENT
 GRADIENT CRITERION IN FLEPO =    10.000


          FOR POINT   29 SECOND STRUCTURE
 DISTANCE A - B      0.735659
 HEAT              -79.296524
 GRADIENT NORM      37.575960
 DIRECTION COSINE    0.981428
 PM7 XYZ CHARGE=-1


  C    -0.12879902 +1   0.01201395 +1  -0.00256939 +1
 Cl     1.79127764 +1   0.00312052 +1   0.01280566 +1
  H    -0.36850893 +1   1.07164658 +1  -0.00176883 +1
  H    -0.35833907 +1  -0.51402991 +1  -0.91874880 +1
  H    -0.36273110 +1  -0.51740327 +1   0.91989307 +1
 Br    -2.92697634 +1  -0.01502164 +1   0.00640509 +1
 
 TIME=     0.03
  REACTANTS AND PRODUCTS SWAPPED AROUND
 *+*+*+*+*+*+*+*+*+*+*+*+*+*+*+*+*+*+*+*+*+*+*+*+*+*+*+*+*+*+*+*+*+*+*+*+*+*+*+*+
            BAR SHORTENED BY       0.000 PERCENT
 GRADIENT CRITERION IN FLEPO =    10.000


          FOR POINT   30 FIRST  STRUCTURE
 DISTANCE A - B      0.735659
 HEAT              -77.740044
 GRADIENT NORM       2.202626
 DIRECTION COSINE    0.760039
 PM7 XYZ CHARGE=-1


  C    -0.71473037 +1   0.01481053 +1  -0.01090500 +1
 Cl     2.16368237 +1  -0.02542194 +1   0.01125019 +1
  H    -0.38591112 +1   1.05591204 +1  -0.01724991 +1
  H    -0.36960445 +1  -0.50131176 +1  -0.90963857 +1
  H    -0.35231795 +1  -0.49643852 +1   0.88296734 +1
 Br    -2.69197573 +1  -0.01503095 +1   0.00692885 +1
 
 TIME=     0.01
  REACTANTS AND PRODUCTS SWAPPED AROUND
 *+*+*+*+*+*+*+*+*+*+*+*+*+*+*+*+*+*+*+*+*+*+*+*+*+*+*+*+*+*+*+*+*+*+*+*+*+*+*+*+
            BAR SHORTENED BY       1.000 PERCENT
 GRADIENT CRITERION IN FLEPO =    10.000


          FOR POINT   31 SECOND STRUCTURE
 DISTANCE A - B      0.728302
 HEAT              -79.017940
 GRADIENT NORM      39.631511
 DIRECTION COSINE    0.761281
 PM7 XYZ CHARGE=-1


  C    -0.13465833 +1   0.01204192 +1  -0.00265275 +1
 Cl     1.79500168 +1   0.00283510 +1   0.01279010 +1
  H    -0.36868296 +1   1.07148924 +1  -0.00192364 +1
  H    -0.35845172 +1  -0.51390273 +1  -0.91865770 +1
  H    -0.36262696 +1  -0.51719362 +1   0.91952381 +1
 Br    -2.92462634 +1  -0.01502173 +1   0.00641033 +1
 
 *+*+*+*+*+*+*+*+*+*+*+*+*+*+*+*+*+*+*+*+*+*+*+*+*+*+*+*+*+*+*+*+*+*+*+*+*+*+*+*+
            BAR SHORTENED BY       1.000 PERCENT
 GRADIENT CRITERION IN FLEPO =    10.000


          FOR POINT   32 SECOND STRUCTURE
 DISTANCE A - B      0.721019
 HEAT              -78.728005
 GRADIENT NORM      41.547689
 DIRECTION COSINE    0.999424
 PM7 XYZ CHARGE=-1


  C    -0.14045905 +1   0.01206960 +1  -0.00273527 +1
 Cl     1.79868849 +1   0.00255252 +1   0.01277471 +1
  H    -0.36885524 +1   1.07133347 +1  -0.00207690 +1
  H    -0.35856325 +1  -0.51377682 +1  -0.91856751 +1
  H    -0.36252387 +1  -0.51698607 +1   0.91915825 +1
 Br    -2.92229983 +1  -0.01502182 +1   0.00641552 +1
 
 *+*+*+*+*+*+*+*+*+*+*+*+*+*+*+*+*+*+*+*+*+*+*+*+*+*+*+*+*+*+*+*+*+*+*+*+*+*+*+*+
            BAR SHORTENED BY       1.000 PERCENT
 GRADIENT CRITERION IN FLEPO =    10.000


          FOR POINT   33 SECOND STRUCTURE
 DISTANCE A - B      0.713809
 HEAT              -78.428301
 GRADIENT NORM      43.322549
 DIRECTION COSINE    0.999538
 PM7 XYZ CHARGE=-1


  C    -0.14620176 +1   0.01209701 +1  -0.00281697 +1
 Cl     1.80233843 +1   0.00227278 +1   0.01275946 +1
  H    -0.36902580 +1   1.07117925 +1  -0.00222863 +1
  H    -0.35867366 +1  -0.51365217 +1  -0.91847822 +1
  H    -0.36242182 +1  -0.51678060 +1   0.91879634 +1
 Br    -2.91999659 +1  -0.01502191 +1   0.00642065 +1
 
 TIME=     0.02
  REACTANTS AND PRODUCTS SWAPPED AROUND
 *+*+*+*+*+*+*+*+*+*+*+*+*+*+*+*+*+*+*+*+*+*+*+*+*+*+*+*+*+*+*+*+*+*+*+*+*+*+*+*+
            BAR SHORTENED BY       0.000 PERCENT
 GRADIENT CRITERION IN FLEPO =    10.000


          FOR POINT   34 FIRST  STRUCTURE
 DISTANCE A - B      0.713809
 HEAT              -77.740044
 GRADIENT NORM       2.202626
 DIRECTION COSINE    0.761472
 PM7 XYZ CHARGE=-1


  C    -0.71473037 +1   0.01481053 +1  -0.01090500 +1
 Cl     2.16368237 +1  -0.02542194 +1   0.01125019 +1
  H    -0.38591112 +1   1.05591204 +1  -0.01724991 +1
  H    -0.36960445 +1  -0.50131176 +1  -0.90963857 +1
  H    -0.35231795 +1  -0.49643852 +1   0.88296734 +1
 Br    -2.69197573 +1  -0.01503095 +1   0.00692885 +1
 
 TIME=     0.01
  REACTANTS AND PRODUCTS SWAPPED AROUND
 *+*+*+*+*+*+*+*+*+*+*+*+*+*+*+*+*+*+*+*+*+*+*+*+*+*+*+*+*+*+*+*+*+*+*+*+*+*+*+*+
            BAR SHORTENED BY       1.000 PERCENT
 GRADIENT CRITERION IN FLEPO =    10.000


          FOR POINT   35 SECOND STRUCTURE
 DISTANCE A - B      0.706671
 HEAT              -78.120311
 GRADIENT NORM      44.956532
 DIRECTION COSINE    0.760869
 PM7 XYZ CHARGE=-1


  C    -0.15188705 +1   0.01212415 +1  -0.00289785 +1
 Cl     1.80595187 +1   0.00199583 +1   0.01274437 +1
  H    -0.36919465 +1   1.07102658 +1  -0.00237884 +1
  H    -0.35878297 +1  -0.51352876 +1  -0.91838982 +1
  H    -0.36232078 +1  -0.51657718 +1   0.91843805 +1
 Br    -2.91771638 +1  -0.01502200 +1   0.00642573 +1
 
 *+*+*+*+*+*+*+*+*+*+*+*+*+*+*+*+*+*+*+*+*+*+*+*+*+*+*+*+*+*+*+*+*+*+*+*+*+*+*+*+
            BAR SHORTENED BY       1.000 PERCENT
 GRADIENT CRITERION IN FLEPO =    10.000


          FOR POINT   36 SECOND STRUCTURE
 DISTANCE A - B      0.699604
 HEAT              -77.805427
 GRADIENT NORM      46.451726
 DIRECTION COSINE    0.999677
 PM7 XYZ CHARGE=-1


  C    -0.15751548 +1   0.01215101 +1  -0.00297792 +1
 Cl     1.80952917 +1   0.00172166 +1   0.01272943 +1
  H    -0.36936181 +1   1.07087543 +1  -0.00252755 +1
  H    -0.35889119 +1  -0.51340659 +1  -0.91830231 +1
  H    -0.36222075 +1  -0.51637579 +1   0.91808334 +1
 Br    -2.91545898 +1  -0.01502209 +1   0.00643076 +1
 
 *+*+*+*+*+*+*+*+*+*+*+*+*+*+*+*+*+*+*+*+*+*+*+*+*+*+*+*+*+*+*+*+*+*+*+*+*+*+*+*+
            BAR SHORTENED BY       1.000 PERCENT
 GRADIENT CRITERION IN FLEPO =    10.000


          FOR POINT   37 SECOND STRUCTURE
 DISTANCE A - B      0.692608
 HEAT              -77.689607
 GRADIENT NORM      42.930938
 DIRECTION COSINE    0.977259
 PM7 XYZ CHARGE=-1


  C    -0.16211823 +1   0.01355252 +1  -0.00056316 +1
 Cl     1.79974427 +1  -0.00006396 +1   0.01270671 +1
  H    -0.37275988 +1   1.08196990 +1  -0.00448983 +1
  H    -0.36306922 +1  -0.51520673 +1  -0.92061489 +1
  H    -0.36489366 +1  -0.50988542 +1   0.91853859 +1
 Br    -2.88728311 +1  -0.01441586 +1   0.00610136 +1
 
 TIME=     0.02
  REACTANTS AND PRODUCTS SWAPPED AROUND
 *+*+*+*+*+*+*+*+*+*+*+*+*+*+*+*+*+*+*+*+*+*+*+*+*+*+*+*+*+*+*+*+*+*+*+*+*+*+*+*+
            BAR SHORTENED BY       0.000 PERCENT
 GRADIENT CRITERION IN FLEPO =    10.000


          FOR POINT   38 FIRST  STRUCTURE
 DISTANCE A - B      0.692608
 HEAT              -77.748890
 GRADIENT NORM       2.209019
 DIRECTION COSINE    0.685041
 PM7 XYZ CHARGE=-1


  C    -0.71473037 +1   0.01481053 +1  -0.01090500 +1
 Cl     2.16368237 +1  -0.02542194 +1   0.01125019 +1
  H    -0.38591112 +1   1.05591204 +1  -0.01724991 +1
  H    -0.36960445 +1  -0.50131176 +1  -0.90963857 +1
  H    -0.35231795 +1  -0.49643852 +1   0.88296734 +1
 Br    -2.69197573 +1  -0.01503095 +1   0.00692885 +1
 
 *+*+*+*+*+*+*+*+*+*+*+*+*+*+*+*+*+*+*+*+*+*+*+*+*+*+*+*+*+*+*+*+*+*+*+*+*+*+*+*+
            BAR SHORTENED BY       1.000 PERCENT
 GRADIENT CRITERION IN FLEPO =    10.000


          FOR POINT   39 FIRST  STRUCTURE
 DISTANCE A - B      0.685682
 HEAT              -77.727018
 GRADIENT NORM       5.269418
 DIRECTION COSINE    0.807220
 PM7 XYZ CHARGE=-1


  C    -0.70920425 +1   0.01479795 +1  -0.01080158 +1
 Cl     2.16004299 +1  -0.02516836 +1   0.01126476 +1
  H    -0.38577961 +1   1.05617262 +1  -0.01712230 +1
  H    -0.36953910 +1  -0.50145071 +1  -0.90974833 +1
  H    -0.35244371 +1  -0.49657299 +1   0.88332305 +1
 Br    -2.69392881 +1  -0.01502480 +1   0.00692057 +1
 
 *+*+*+*+*+*+*+*+*+*+*+*+*+*+*+*+*+*+*+*+*+*+*+*+*+*+*+*+*+*+*+*+*+*+*+*+*+*+*+*+
            BAR SHORTENED BY       1.000 PERCENT
 GRADIENT CRITERION IN FLEPO =     2.269


          FOR POINT   40 FIRST  STRUCTURE
 DISTANCE A - B      0.678825
 HEAT              -77.702675
 GRADIENT NORM       4.436130
 DIRECTION COSINE    0.683578
 PM7 XYZ CHARGE=-1


  C    -0.70292999 +1   0.01651927 +1  -0.01243605 +1
 Cl     2.15241693 +1  -0.02194422 +1   0.01360998 +1
  H    -0.38296355 +1   1.05853729 +1  -0.01473981 +1
  H    -0.36746767 +1  -0.50340460 +1  -0.91167544 +1
  H    -0.35082582 +1  -0.49854841 +1   0.88571759 +1
 Br    -2.68502447 +1  -0.01149406 +1   0.00484479 +1
 
 TIME=     0.03
  REACTANTS AND PRODUCTS SWAPPED AROUND
 *+*+*+*+*+*+*+*+*+*+*+*+*+*+*+*+*+*+*+*+*+*+*+*+*+*+*+*+*+*+*+*+*+*+*+*+*+*+*+*+
            BAR SHORTENED BY       0.000 PERCENT
 GRADIENT CRITERION IN FLEPO =     1.436


          FOR POINT   41 SECOND STRUCTURE
 DISTANCE A - B      0.678825
 HEAT              -77.749556
 GRADIENT NORM      40.522045
 DIRECTION COSINE    0.828835
 PM7 XYZ CHARGE=-1


  C    -0.15728434 +1   0.01586511 +1  -0.00232734 +1
 Cl     1.79794553 +1  -0.00046006 +1   0.01070511 +1
  H    -0.37083316 +1   1.07853679 +1  -0.00820127 +1
  H    -0.36667183 +1  -0.51576115 +1  -0.92199505 +1
  H    -0.36651213 +1  -0.51103859 +1   0.91916799 +1
 Br    -2.87070987 +1  -0.01023723 +1   0.00398749 +1
 
 *+*+*+*+*+*+*+*+*+*+*+*+*+*+*+*+*+*+*+*+*+*+*+*+*+*+*+*+*+*+*+*+*+*+*+*+*+*+*+*+
            BAR SHORTENED BY       1.000 PERCENT
 GRADIENT CRITERION IN FLEPO =    10.000


          FOR POINT   42 SECOND STRUCTURE
 DISTANCE A - B      0.672037
 HEAT              -77.478091
 GRADIENT NORM      41.812775
 DIRECTION COSINE    0.999535
 PM7 XYZ CHARGE=-1


  C    -0.16274080 +1   0.01587165 +1  -0.00242843 +1
 Cl     1.80149024 +1  -0.00067490 +1   0.01073416 +1
  H    -0.37095447 +1   1.07833679 +1  -0.00826665 +1
  H    -0.36667979 +1  -0.51563758 +1  -0.92189186 +1
  H    -0.36635527 +1  -0.51091369 +1   0.91883348 +1
 Br    -2.86885301 +1  -0.01024980 +1   0.00399606 +1
 
 TIME=     0.02
  REACTANTS AND PRODUCTS SWAPPED AROUND
 *+*+*+*+*+*+*+*+*+*+*+*+*+*+*+*+*+*+*+*+*+*+*+*+*+*+*+*+*+*+*+*+*+*+*+*+*+*+*+*+
            BAR SHORTENED BY       1.000 PERCENT
 GRADIENT CRITERION IN FLEPO =    10.000


          FOR POINT   43 FIRST  STRUCTURE
 DISTANCE A - B      0.665317
 HEAT              -77.677300
 GRADIENT NORM       7.219806
 DIRECTION COSINE    0.868719
 PM7 XYZ CHARGE=-1


  C    -0.69752810 +1   0.01651280 +1  -0.01233598 +1
 Cl     2.14890766 +1  -0.02173152 +1   0.01358122 +1
  H    -0.38284345 +1   1.05873528 +1  -0.01467508 +1
  H    -0.36745979 +1  -0.50352693 +1  -0.91177761 +1
  H    -0.35098112 +1  -0.49867207 +1   0.88604875 +1
 Br    -2.68686275 +1  -0.01148162 +1   0.00483630 +1
 
 *+*+*+*+*+*+*+*+*+*+*+*+*+*+*+*+*+*+*+*+*+*+*+*+*+*+*+*+*+*+*+*+*+*+*+*+*+*+*+*+
            BAR SHORTENED BY       1.000 PERCENT
 GRADIENT CRITERION IN FLEPO =     4.220


          FOR POINT   44 FIRST  STRUCTURE
 DISTANCE A - B      0.658664
 HEAT              -77.643712
 GRADIENT NORM       7.032216
 DIRECTION COSINE    0.889686
 PM7 XYZ CHARGE=-1


  C    -0.69335425 +1   0.01483363 +1  -0.01049509 +1
 Cl     2.14137064 +1  -0.00543673 +1   0.01572010 +1
  H    -0.38002187 +1   1.06066915 +1  -0.01114474 +1
  H    -0.36460482 +1  -0.49993110 +1  -0.91348413 +1
  H    -0.34845212 +1  -0.49725014 +1   0.89314836 +1
 Br    -2.68240617 +1  -0.00975026 +1   0.00315048 +1
 
 *+*+*+*+*+*+*+*+*+*+*+*+*+*+*+*+*+*+*+*+*+*+*+*+*+*+*+*+*+*+*+*+*+*+*+*+*+*+*+*+
            BAR SHORTENED BY       1.000 PERCENT
 GRADIENT CRITERION IN FLEPO =     4.032


          FOR POINT   45 FIRST  STRUCTURE
 DISTANCE A - B      0.652077
 HEAT              -77.628695
 GRADIENT NORM       6.996718
 DIRECTION COSINE    0.911420
 PM7 XYZ CHARGE=-1


  C    -0.69191866 +1   0.01653228 +1  -0.00844480 +1
 Cl     2.13071275 +1  -0.00271921 +1   0.01732381 +1
  H    -0.36860432 +1   1.05935131 +1  -0.00949952 +1
  H    -0.36217671 +1  -0.50193825 +1  -0.90845185 +1
  H    -0.34579766 +1  -0.49575232 +1   0.89172258 +1
 Br    -2.68296084 +1  -0.01153439 +1   0.00550650 +1
 
 TIME=     0.03
  REACTANTS AND PRODUCTS SWAPPED AROUND
 *+*+*+*+*+*+*+*+*+*+*+*+*+*+*+*+*+*+*+*+*+*+*+*+*+*+*+*+*+*+*+*+*+*+*+*+*+*+*+*+
            BAR SHORTENED BY       0.000 PERCENT
 GRADIENT CRITERION IN FLEPO =     3.997


          FOR POINT   46 SECOND STRUCTURE
 DISTANCE A - B      0.652077
 HEAT              -77.470474
 GRADIENT NORM      41.809105
 DIRECTION COSINE    0.899797
 PM7 XYZ CHARGE=-1


  C    -0.16274080 +1   0.01587165 +1  -0.00242843 +1
 Cl     1.80149024 +1  -0.00067490 +1   0.01073416 +1
  H    -0.37095447 +1   1.07833679 +1  -0.00826665 +1
  H    -0.36667979 +1  -0.51563758 +1  -0.92189186 +1
  H    -0.36635527 +1  -0.51091369 +1   0.91883348 +1
 Br    -2.86885301 +1  -0.01024980 +1   0.00399606 +1
 
 TIME=     0.01
  REACTANTS AND PRODUCTS SWAPPED AROUND
 *+*+*+*+*+*+*+*+*+*+*+*+*+*+*+*+*+*+*+*+*+*+*+*+*+*+*+*+*+*+*+*+*+*+*+*+*+*+*+*+
            BAR SHORTENED BY       1.000 PERCENT
 GRADIENT CRITERION IN FLEPO =    10.000


          FOR POINT   47 FIRST  STRUCTURE
 DISTANCE A - B      0.645556
 HEAT              -77.578228
 GRADIENT NORM       9.893803
 DIRECTION COSINE    0.878906
 PM7 XYZ CHARGE=-1


  C    -0.68662688 +1   0.01652567 +1  -0.00838463 +1
 Cl     2.12742053 +1  -0.00269876 +1   0.01725791 +1
  H    -0.36862783 +1   1.05954116 +1  -0.00948719 +1
  H    -0.36222174 +1  -0.50207525 +1  -0.90858625 +1
  H    -0.34600323 +1  -0.49590394 +1   0.89199369 +1
 Br    -2.68481976 +1  -0.01152154 +1   0.00549139 +1
 
 *+*+*+*+*+*+*+*+*+*+*+*+*+*+*+*+*+*+*+*+*+*+*+*+*+*+*+*+*+*+*+*+*+*+*+*+*+*+*+*+
            BAR SHORTENED BY       1.000 PERCENT
 GRADIENT CRITERION IN FLEPO =     6.894


          FOR POINT   48 FIRST  STRUCTURE
 DISTANCE A - B      0.639101
 HEAT              -77.512201
 GRADIENT NORM      12.840146
 DIRECTION COSINE    0.994801
 PM7 XYZ CHARGE=-1


  C    -0.68138802 +1   0.01651913 +1  -0.00832507 +1
 Cl     2.12416122 +1  -0.00267853 +1   0.01719268 +1
  H    -0.36865109 +1   1.05972912 +1  -0.00947498 +1
  H    -0.36226632 +1  -0.50221087 +1  -0.90871931 +1
  H    -0.34620675 +1  -0.49605403 +1   0.89226208 +1
 Br    -2.68666009 +1  -0.01150882 +1   0.00547644 +1
 
 *+*+*+*+*+*+*+*+*+*+*+*+*+*+*+*+*+*+*+*+*+*+*+*+*+*+*+*+*+*+*+*+*+*+*+*+*+*+*+*+
            BAR SHORTENED BY       1.000 PERCENT
 GRADIENT CRITERION IN FLEPO =     9.840


          FOR POINT   49 FIRST  STRUCTURE
 DISTANCE A - B      0.632710
 HEAT              -77.431754
 GRADIENT NORM      15.721535
 DIRECTION COSINE    0.998033
 PM7 XYZ CHARGE=-1


  C    -0.67620155 +1   0.01651266 +1  -0.00826611 +1
 Cl     2.12093451 +1  -0.00265849 +1   0.01712809 +1
  H    -0.36867413 +1   1.05991519 +1  -0.00946290 +1
  H    -0.36231045 +1  -0.50234514 +1  -0.90885103 +1
  H    -0.34640824 +1  -0.49620263 +1   0.89252780 +1
 Br    -2.68848202 +1  -0.01149623 +1   0.00546164 +1
 
 TIME=     0.02
  REACTANTS AND PRODUCTS SWAPPED AROUND
 *+*+*+*+*+*+*+*+*+*+*+*+*+*+*+*+*+*+*+*+*+*+*+*+*+*+*+*+*+*+*+*+*+*+*+*+*+*+*+*+
            BAR SHORTENED BY       0.000 PERCENT
 GRADIENT CRITERION IN FLEPO =    10.000


          FOR POINT   50 SECOND STRUCTURE
 DISTANCE A - B      0.632710
 HEAT              -77.470474
 GRADIENT NORM      41.809105
 DIRECTION COSINE    0.835026
 PM7 XYZ CHARGE=-1


  C    -0.16274080 +1   0.01587165 +1  -0.00242843 +1
 Cl     1.80149024 +1  -0.00067490 +1   0.01073416 +1
  H    -0.37095447 +1   1.07833679 +1  -0.00826665 +1
  H    -0.36667979 +1  -0.51563758 +1  -0.92189186 +1
  H    -0.36635527 +1  -0.51091369 +1   0.91883348 +1
 Br    -2.86885301 +1  -0.01024980 +1   0.00399606 +1
 
 *+*+*+*+*+*+*+*+*+*+*+*+*+*+*+*+*+*+*+*+*+*+*+*+*+*+*+*+*+*+*+*+*+*+*+*+*+*+*+*+
            BAR SHORTENED BY       1.000 PERCENT
 GRADIENT CRITERION IN FLEPO =    10.000


          FOR POINT   51 SECOND STRUCTURE
 DISTANCE A - B      0.626382
 HEAT              -77.203559
 GRADIENT NORM      42.901833
 DIRECTION COSINE    0.999641
 PM7 XYZ CHARGE=-1


  C    -0.16787541 +1   0.01587806 +1  -0.00248680 +1
 Cl     1.80468469 +1  -0.00069473 +1   0.01079810 +1
  H    -0.37093166 +1   1.07815258 +1  -0.00827861 +1
  H    -0.36663610 +1  -0.51550466 +1  -0.92176145 +1
  H    -0.36615580 +1  -0.51076658 +1   0.91857042 +1
 Br    -2.86704930 +1  -0.01026227 +1   0.00401072 +1
 
 TIME=     0.02
  REACTANTS AND PRODUCTS SWAPPED AROUND
 *+*+*+*+*+*+*+*+*+*+*+*+*+*+*+*+*+*+*+*+*+*+*+*+*+*+*+*+*+*+*+*+*+*+*+*+*+*+*+*+
            BAR SHORTENED BY       1.000 PERCENT
 GRADIENT CRITERION IN FLEPO =    10.000


          FOR POINT   52 FIRST  STRUCTURE
 DISTANCE A - B      0.620119
 HEAT              -77.338979
 GRADIENT NORM      18.473199
 DIRECTION COSINE    0.807662
 PM7 XYZ CHARGE=-1


  C    -0.67111828 +1   0.01650631 +1  -0.00820831 +1
 Cl     2.11777202 +1  -0.00263885 +1   0.01706479 +1
  H    -0.36869670 +1   1.06009757 +1  -0.00945106 +1
  H    -0.36235371 +1  -0.50247673 +1  -0.90898013 +1
  H    -0.34660572 +1  -0.49634827 +1   0.89278822 +1
 Br    -2.69026769 +1  -0.01148389 +1   0.00544713 +1
 
 *+*+*+*+*+*+*+*+*+*+*+*+*+*+*+*+*+*+*+*+*+*+*+*+*+*+*+*+*+*+*+*+*+*+*+*+*+*+*+*+
            BAR SHORTENED BY       1.000 PERCENT
 GRADIENT CRITERION IN FLEPO =    10.000


          FOR POINT   53 FIRST  STRUCTURE
 DISTANCE A - B      0.613917
 HEAT              -77.234160
 GRADIENT NORM      21.110688
 DIRECTION COSINE    0.999509
 PM7 XYZ CHARGE=-1


  C    -0.66608586 +1   0.01650003 +1  -0.00815110 +1
 Cl     2.11464114 +1  -0.00261941 +1   0.01700212 +1
  H    -0.36871905 +1   1.06027812 +1  -0.00943933 +1
  H    -0.36239653 +1  -0.50260701 +1  -0.90910795 +1
  H    -0.34680122 +1  -0.49649245 +1   0.89304605 +1
 Br    -2.69203551 +1  -0.01147168 +1   0.00543276 +1
 
 *+*+*+*+*+*+*+*+*+*+*+*+*+*+*+*+*+*+*+*+*+*+*+*+*+*+*+*+*+*+*+*+*+*+*+*+*+*+*+*+
            BAR SHORTENED BY       1.000 PERCENT
 GRADIENT CRITERION IN FLEPO =    10.000


          FOR POINT   54 FIRST  STRUCTURE
 DISTANCE A - B      0.607778
 HEAT              -77.282445
 GRADIENT NORM      15.508717
 DIRECTION COSINE    0.909954
 PM7 XYZ CHARGE=-1


  C    -0.65665041 +1   0.01791526 +1  -0.00631494 +1
 Cl     2.10195731 +1   0.00066426 +1   0.01930251 +1
  H    -0.36313681 +1   1.06460841 +1  -0.00685196 +1
  H    -0.35939509 +1  -0.50470017 +1  -0.91128945 +1
  H    -0.34464968 +1  -0.49897116 +1   0.89656052 +1
 Br    -2.66612811 +1  -0.00326648 +1   0.00381107 +1
 
 TIME=     0.03
  REACTANTS AND PRODUCTS SWAPPED AROUND
 *+*+*+*+*+*+*+*+*+*+*+*+*+*+*+*+*+*+*+*+*+*+*+*+*+*+*+*+*+*+*+*+*+*+*+*+*+*+*+*+
            BAR SHORTENED BY       0.000 PERCENT
 GRADIENT CRITERION IN FLEPO =    10.000


          FOR POINT   55 SECOND STRUCTURE
 DISTANCE A - B      0.607778
 HEAT              -77.203559
 GRADIENT NORM      42.901793
 DIRECTION COSINE    0.854346
 PM7 XYZ CHARGE=-1


  C    -0.16787541 +1   0.01587806 +1  -0.00248680 +1
 Cl     1.80468469 +1  -0.00069473 +1   0.01079810 +1
  H    -0.37093166 +1   1.07815258 +1  -0.00827861 +1
  H    -0.36663610 +1  -0.51550466 +1  -0.92176145 +1
  H    -0.36615580 +1  -0.51076658 +1   0.91857042 +1
 Br    -2.86704930 +1  -0.01026227 +1   0.00401072 +1
 
 TIME=     0.00
  REACTANTS AND PRODUCTS SWAPPED AROUND
 *+*+*+*+*+*+*+*+*+*+*+*+*+*+*+*+*+*+*+*+*+*+*+*+*+*+*+*+*+*+*+*+*+*+*+*+*+*+*+*+
            BAR SHORTENED BY       1.000 PERCENT
 GRADIENT CRITERION IN FLEPO =    10.000


          FOR POINT   56 FIRST  STRUCTURE
 DISTANCE A - B      0.601701
 HEAT              -77.192235
 GRADIENT NORM      17.942642
 DIRECTION COSINE    0.843307
 PM7 XYZ CHARGE=-1


  C    -0.65176266 +1   0.01789489 +1  -0.00627666 +1
 Cl     2.09898458 +1   0.00065067 +1   0.01921747 +1
  H    -0.36321476 +1   1.06474385 +1  -0.00686623 +1
  H    -0.35946750 +1  -0.50480822 +1  -0.91139417 +1
  H    -0.34486474 +1  -0.49908911 +1   0.89678061 +1
 Br    -2.66813732 +1  -0.00333644 +1   0.00381307 +1
 
 TIME=     0.01
  REACTANTS AND PRODUCTS SWAPPED AROUND
 *+*+*+*+*+*+*+*+*+*+*+*+*+*+*+*+*+*+*+*+*+*+*+*+*+*+*+*+*+*+*+*+*+*+*+*+*+*+*+*+
            BAR SHORTENED BY       1.000 PERCENT
 GRADIENT CRITERION IN FLEPO =    10.000


          FOR POINT   57 SECOND STRUCTURE
 DISTANCE A - B      0.595683
 HEAT              -76.945805
 GRADIENT NORM      43.807849
 DIRECTION COSINE    0.836406
 PM7 XYZ CHARGE=-1


  C    -0.17271428 +1   0.01589823 +1  -0.00252470 +1
 Cl     1.80762769 +1  -0.00068128 +1   0.01088230 +1
  H    -0.37085449 +1   1.07801849 +1  -0.00826449 +1
  H    -0.36656441 +1  -0.51539769 +1  -0.92165778 +1
  H    -0.36594289 +1  -0.51064980 +1   0.91835253 +1
 Br    -2.86506018 +1  -0.01019301 +1   0.00400874 +1
 
 TIME=     0.01
  REACTANTS AND PRODUCTS SWAPPED AROUND
 *+*+*+*+*+*+*+*+*+*+*+*+*+*+*+*+*+*+*+*+*+*+*+*+*+*+*+*+*+*+*+*+*+*+*+*+*+*+*+*+
            BAR SHORTENED BY       1.000 PERCENT
 GRADIENT CRITERION IN FLEPO =    10.000


          FOR POINT   58 FIRST  STRUCTURE
 DISTANCE A - B      0.589727
 HEAT              -77.091568
 GRADIENT NORM      20.302498
 DIRECTION COSINE    0.823631
 PM7 XYZ CHARGE=-1


  C    -0.64697217 +1   0.01787492 +1  -0.00623914 +1
 Cl     2.09607101 +1   0.00063735 +1   0.01913411 +1
  H    -0.36329115 +1   1.06487660 +1  -0.00688021 +1
  H    -0.35953847 +1  -0.50491411 +1  -0.91149680 +1
  H    -0.34507552 +1  -0.49920472 +1   0.89699633 +1
 Br    -2.67010655 +1  -0.00340500 +1   0.00381503 +1
 
 *+*+*+*+*+*+*+*+*+*+*+*+*+*+*+*+*+*+*+*+*+*+*+*+*+*+*+*+*+*+*+*+*+*+*+*+*+*+*+*+
            BAR SHORTENED BY       1.000 PERCENT
 GRADIENT CRITERION IN FLEPO =    10.000


          FOR POINT   59 FIRST  STRUCTURE
 DISTANCE A - B      0.583829
 HEAT              -76.980531
 GRADIENT NORM      22.585891
 DIRECTION COSINE    0.999045
 PM7 XYZ CHARGE=-1


  C    -0.64222959 +1   0.01785515 +1  -0.00620200 +1
 Cl     2.09318658 +1   0.00062416 +1   0.01905160 +1
  H    -0.36336679 +1   1.06500802 +1  -0.00689406 +1
  H    -0.35960872 +1  -0.50501895 +1  -0.91159841 +1
  H    -0.34528419 +1  -0.49931917 +1   0.89720990 +1
 Br    -2.67205609 +1  -0.00347288 +1   0.00381696 +1
 
 *+*+*+*+*+*+*+*+*+*+*+*+*+*+*+*+*+*+*+*+*+*+*+*+*+*+*+*+*+*+*+*+*+*+*+*+*+*+*+*+
            BAR SHORTENED BY       1.000 PERCENT
 GRADIENT CRITERION IN FLEPO =    10.000


          FOR POINT   60 FIRST  STRUCTURE
 DISTANCE A - B      0.577991
 HEAT              -77.039782
 GRADIENT NORM      17.073851
 DIRECTION COSINE    0.853268
 PM7 XYZ CHARGE=-1


  C    -0.64332581 +1   0.01725526 +1  -0.00678651 +1
 Cl     2.07440362 +1   0.00328613 +1   0.01577203 +1
  H    -0.35323405 +1   1.06735454 +1  -0.01096521 +1
  H    -0.34415566 +1  -0.51179477 +1  -0.91847559 +1
  H    -0.33712556 +1  -0.50285623 +1   0.90085668 +1
 Br    -2.66718561 +1  -0.00239397 +1   0.00450566 +1
 
 TIME=     0.03
  REACTANTS AND PRODUCTS SWAPPED AROUND
 *+*+*+*+*+*+*+*+*+*+*+*+*+*+*+*+*+*+*+*+*+*+*+*+*+*+*+*+*+*+*+*+*+*+*+*+*+*+*+*+
            BAR SHORTENED BY       0.000 PERCENT
 GRADIENT CRITERION IN FLEPO =    10.000


          FOR POINT   61 SECOND STRUCTURE
 DISTANCE A - B      0.577991
 HEAT              -76.945805
 GRADIENT NORM      43.807813
 DIRECTION COSINE    0.875843
 PM7 XYZ CHARGE=-1


  C    -0.17271428 +1   0.01589823 +1  -0.00252470 +1
 Cl     1.80762769 +1  -0.00068128 +1   0.01088230 +1
  H    -0.37085449 +1   1.07801849 +1  -0.00826449 +1
  H    -0.36656441 +1  -0.51539769 +1  -0.92165778 +1
  H    -0.36594289 +1  -0.51064980 +1   0.91835253 +1
 Br    -2.86506018 +1  -0.01019301 +1   0.00400874 +1
 
 TIME=     0.01
  REACTANTS AND PRODUCTS SWAPPED AROUND
 *+*+*+*+*+*+*+*+*+*+*+*+*+*+*+*+*+*+*+*+*+*+*+*+*+*+*+*+*+*+*+*+*+*+*+*+*+*+*+*+
            BAR SHORTENED BY       1.000 PERCENT
 GRADIENT CRITERION IN FLEPO =    10.000


          FOR POINT   62 FIRST  STRUCTURE
 DISTANCE A - B      0.572211
 HEAT              -76.943784
 GRADIENT NORM      19.009580
 DIRECTION COSINE    0.872101
 PM7 XYZ CHARGE=-1


  C    -0.63861969 +1   0.01724169 +1  -0.00674389 +1
 Cl     2.07173586 +1   0.00324646 +1   0.01572313 +1
  H    -0.35341025 +1   1.06746118 +1  -0.01093820 +1
  H    -0.34437975 +1  -0.51183080 +1  -0.91850742 +1
  H    -0.33741374 +1  -0.50293416 +1   0.90103164 +1
 Br    -2.66916436 +1  -0.00247196 +1   0.00450069 +1
 
 TIME=     0.01
  REACTANTS AND PRODUCTS SWAPPED AROUND
 *+*+*+*+*+*+*+*+*+*+*+*+*+*+*+*+*+*+*+*+*+*+*+*+*+*+*+*+*+*+*+*+*+*+*+*+*+*+*+*+
            BAR SHORTENED BY       1.000 PERCENT
 GRADIENT CRITERION IN FLEPO =    10.000


          FOR POINT   63 SECOND STRUCTURE
 DISTANCE A - B      0.566489
 HEAT              -76.698600
 GRADIENT NORM      44.552336
 DIRECTION COSINE    0.868817
 PM7 XYZ CHARGE=-1


  C    -0.17737334 +1   0.01591166 +1  -0.00256689 +1
 Cl     1.81026877 +1  -0.00064200 +1   0.01093070 +1
  H    -0.37068005 +1   1.07791292 +1  -0.00829123 +1
  H    -0.36634256 +1  -0.51536202 +1  -0.92162627 +1
  H    -0.36565760 +1  -0.51057265 +1   0.91817932 +1
 Br    -2.86310122 +1  -0.01011580 +1   0.00401366 +1
 
 TIME=     0.01
  REACTANTS AND PRODUCTS SWAPPED AROUND
 *+*+*+*+*+*+*+*+*+*+*+*+*+*+*+*+*+*+*+*+*+*+*+*+*+*+*+*+*+*+*+*+*+*+*+*+*+*+*+*+
            BAR SHORTENED BY       1.000 PERCENT
 GRADIENT CRITERION IN FLEPO =    10.000


          FOR POINT   64 FIRST  STRUCTURE
 DISTANCE A - B      0.560824
 HEAT              -76.839016
 GRADIENT NORM      20.925821
 DIRECTION COSINE    0.859745
 PM7 XYZ CHARGE=-1


  C    -0.63400723 +1   0.01722839 +1  -0.00670212 +1
 Cl     2.06912119 +1   0.00320757 +1   0.01567520 +1
  H    -0.35358295 +1   1.06756570 +1  -0.01091173 +1
  H    -0.34459937 +1  -0.51186611 +1  -0.91853860 +1
  H    -0.33769618 +1  -0.50301055 +1   0.90120312 +1
 Br    -2.67110372 +1  -0.00254840 +1   0.00449582 +1
 
 *+*+*+*+*+*+*+*+*+*+*+*+*+*+*+*+*+*+*+*+*+*+*+*+*+*+*+*+*+*+*+*+*+*+*+*+*+*+*+*+
            BAR SHORTENED BY       1.000 PERCENT
 GRADIENT CRITERION IN FLEPO =    10.000


          FOR POINT   65 FIRST  STRUCTURE
 DISTANCE A - B      0.555216
 HEAT              -76.725404
 GRADIENT NORM      22.807195
 DIRECTION COSINE    0.998430
 PM7 XYZ CHARGE=-1


  C    -0.62944089 +1   0.01721522 +1  -0.00666077 +1
 Cl     2.06653267 +1   0.00316908 +1   0.01562776 +1
  H    -0.35375392 +1   1.06766917 +1  -0.01088553 +1
  H    -0.34481681 +1  -0.51190107 +1  -0.91856948 +1
  H    -0.33797579 +1  -0.50308617 +1   0.90137288 +1
 Br    -2.67302370 +1  -0.00262408 +1   0.00449100 +1
 
 *+*+*+*+*+*+*+*+*+*+*+*+*+*+*+*+*+*+*+*+*+*+*+*+*+*+*+*+*+*+*+*+*+*+*+*+*+*+*+*+
            BAR SHORTENED BY       1.000 PERCENT
 GRADIENT CRITERION IN FLEPO =    10.000


          FOR POINT   66 FIRST  STRUCTURE
 DISTANCE A - B      0.549664
 HEAT              -76.603742
 GRADIENT NORM      24.632660
 DIRECTION COSINE    0.998930
 PM7 XYZ CHARGE=-1


  C    -0.62492021 +1   0.01720219 +1  -0.00661983 +1
 Cl     2.06397003 +1   0.00313097 +1   0.01558079 +1
  H    -0.35392318 +1   1.06777161 +1  -0.01085959 +1
  H    -0.34503206 +1  -0.51193568 +1  -0.91860005 +1
  H    -0.33825261 +1  -0.50316103 +1   0.90154094 +1
 Br    -2.67492447 +1  -0.00269899 +1   0.00448623 +1
 
 TIME=     0.02
  REACTANTS AND PRODUCTS SWAPPED AROUND
 *+*+*+*+*+*+*+*+*+*+*+*+*+*+*+*+*+*+*+*+*+*+*+*+*+*+*+*+*+*+*+*+*+*+*+*+*+*+*+*+
            BAR SHORTENED BY       0.000 PERCENT
 GRADIENT CRITERION IN FLEPO =    10.000


          FOR POINT   67 SECOND STRUCTURE
 DISTANCE A - B      0.549664
 HEAT              -76.698600
 GRADIENT NORM      44.552303
 DIRECTION COSINE    0.838454
 PM7 XYZ CHARGE=-1


  C    -0.17737334 +1   0.01591166 +1  -0.00256689 +1
 Cl     1.81026877 +1  -0.00064200 +1   0.01093070 +1
  H    -0.37068005 +1   1.07791292 +1  -0.00829123 +1
  H    -0.36634256 +1  -0.51536202 +1  -0.92162627 +1
  H    -0.36565760 +1  -0.51057265 +1   0.91817932 +1
 Br    -2.86310122 +1  -0.01011580 +1   0.00401366 +1
 
 *+*+*+*+*+*+*+*+*+*+*+*+*+*+*+*+*+*+*+*+*+*+*+*+*+*+*+*+*+*+*+*+*+*+*+*+*+*+*+*+
            BAR SHORTENED BY       1.000 PERCENT
 GRADIENT CRITERION IN FLEPO =    10.000


          FOR POINT   68 SECOND STRUCTURE
 DISTANCE A - B      0.544167
 HEAT              -76.465746
 GRADIENT NORM      45.197102
 DIRECTION COSINE    0.999824
 PM7 XYZ CHARGE=-1


  C    -0.18184880 +1   0.01592457 +1  -0.00260742 +1
 Cl     1.81280578 +1  -0.00060427 +1   0.01097720 +1
  H    -0.37051248 +1   1.07781150 +1  -0.00831691 +1
  H    -0.36612946 +1  -0.51532776 +1  -0.92159601 +1
  H    -0.36538355 +1  -0.51049853 +1   0.91801293 +1
 Br    -2.86121946 +1  -0.01004163 +1   0.00401839 +1
 
 TIME=     0.01
  REACTANTS AND PRODUCTS SWAPPED AROUND
 *+*+*+*+*+*+*+*+*+*+*+*+*+*+*+*+*+*+*+*+*+*+*+*+*+*+*+*+*+*+*+*+*+*+*+*+*+*+*+*+
            BAR SHORTENED BY       1.000 PERCENT
 GRADIENT CRITERION IN FLEPO =    10.000


          FOR POINT   69 FIRST  STRUCTURE
 DISTANCE A - B      0.538725
 HEAT              -76.483769
 GRADIENT NORM      26.374894
 DIRECTION COSINE    0.821290
 PM7 XYZ CHARGE=-1


  C    -0.62048950 +1   0.01718941 +1  -0.00657971 +1
 Cl     2.06145839 +1   0.00309361 +1   0.01553475 +1
  H    -0.35408908 +1   1.06787201 +1  -0.01083416 +1
  H    -0.34524304 +1  -0.51196960 +1  -0.91863001 +1
  H    -0.33852392 +1  -0.50323441 +1   0.90170566 +1
 Br    -2.67678742 +1  -0.00277242 +1   0.00448155 +1
 
 *+*+*+*+*+*+*+*+*+*+*+*+*+*+*+*+*+*+*+*+*+*+*+*+*+*+*+*+*+*+*+*+*+*+*+*+*+*+*+*+
            BAR SHORTENED BY       1.000 PERCENT
 GRADIENT CRITERION IN FLEPO =    10.000


          FOR POINT   70 FIRST  STRUCTURE
 DISTANCE A - B      0.533338
 HEAT              -76.478070
 GRADIENT NORM      22.692530
 DIRECTION COSINE    0.943860
 PM7 XYZ CHARGE=-1


  C    -0.61061133 +1   0.01533922 +1  -0.00814884 +1
 Cl     2.04674057 +1   0.01168978 +1   0.02330611 +1
  H    -0.35182155 +1   1.07011227 +1  -0.00780451 +1
  H    -0.33775687 +1  -0.51009998 +1  -0.91686343 +1
  H    -0.33677595 +1  -0.50518871 +1   0.90436868 +1
 Br    -2.65333011 +1  -0.00450316 +1   0.00125259 +1
 
 *+*+*+*+*+*+*+*+*+*+*+*+*+*+*+*+*+*+*+*+*+*+*+*+*+*+*+*+*+*+*+*+*+*+*+*+*+*+*+*+
            BAR SHORTENED BY       1.000 PERCENT
 GRADIENT CRITERION IN FLEPO =    10.000


          FOR POINT   71 FIRST  STRUCTURE
 DISTANCE A - B      0.528005
 HEAT              -76.360100
 GRADIENT NORM      24.355172
 DIRECTION COSINE    0.998933
 PM7 XYZ CHARGE=-1


  C    -0.60632370 +1   0.01534507 +1  -0.00809343 +1
 Cl     2.04440122 +1   0.01156684 +1   0.02318282 +1
  H    -0.35200846 +1   1.07018926 +1  -0.00780964 +1
  H    -0.33804060 +1  -0.51015226 +1  -0.91691075 +1
  H    -0.33706203 +1  -0.50524181 +1   0.90450512 +1
 Br    -2.65540901 +1  -0.00455855 +1   0.00128025 +1
 
 TIME=     0.03
  REACTANTS AND PRODUCTS SWAPPED AROUND
 *+*+*+*+*+*+*+*+*+*+*+*+*+*+*+*+*+*+*+*+*+*+*+*+*+*+*+*+*+*+*+*+*+*+*+*+*+*+*+*+
            BAR SHORTENED BY       0.000 PERCENT
 GRADIENT CRITERION IN FLEPO =    10.000


          FOR POINT   72 SECOND STRUCTURE
 DISTANCE A - B      0.528005
 HEAT              -76.664973
 GRADIENT NORM      37.909766
 DIRECTION COSINE    0.923111
 PM7 XYZ CHARGE=-1


  C    -0.17119463 +1   0.02090569 +1  -0.00161396 +1
 Cl     1.79016216 +1   0.04039975 +1   0.01942020 +1
  H    -0.35467711 +1   1.07743729 +1  -0.00330694 +1
  H    -0.34103764 +1  -0.51724477 +1  -0.92802797 +1
  H    -0.36761869 +1  -0.51246891 +1   0.92219069 +1
 Br    -2.80484102 +1  -0.00280388 +1   0.00010859 +1
 
 *+*+*+*+*+*+*+*+*+*+*+*+*+*+*+*+*+*+*+*+*+*+*+*+*+*+*+*+*+*+*+*+*+*+*+*+*+*+*+*+
            BAR SHORTENED BY       1.000 PERCENT
 GRADIENT CRITERION IN FLEPO =    10.000


          FOR POINT   73 SECOND STRUCTURE
 DISTANCE A - B      0.522725
 HEAT              -76.564898
 GRADIENT NORM      38.327025
 DIRECTION COSINE    0.976721
 PM7 XYZ CHARGE=-1


  C    -0.17404186 +1   0.01769272 +1  -0.00158648 +1
 Cl     1.79921932 +1   0.00487552 +1   0.01968330 +1
  H    -0.36085167 +1   1.08222799 +1  -0.00578731 +1
  H    -0.34459228 +1  -0.51650187 +1  -0.92679826 +1
  H    -0.35881272 +1  -0.51803931 +1   0.92082840 +1
 Br    -2.81299051 +1  -0.00477959 +1  -0.00204507 +1
 
 *+*+*+*+*+*+*+*+*+*+*+*+*+*+*+*+*+*+*+*+*+*+*+*+*+*+*+*+*+*+*+*+*+*+*+*+*+*+*+*+
            BAR SHORTENED BY       1.000 PERCENT
 GRADIENT CRITERION IN FLEPO =    10.000


          FOR POINT   74 SECOND STRUCTURE
 DISTANCE A - B      0.517498
 HEAT              -76.363713
 GRADIENT NORM      38.846446
 DIRECTION COSINE    0.999711
 PM7 XYZ CHARGE=-1


  C    -0.17836468 +1   0.01766924 +1  -0.00165155 +1
 Cl     1.80167114 +1   0.00494244 +1   0.01971830 +1
  H    -0.36076324 +1   1.08210761 +1  -0.00580754 +1
  H    -0.34452677 +1  -0.51643838 +1  -0.92669938 +1
  H    -0.35859521 +1  -0.51791133 +1   0.92066517 +1
 Br    -2.81141469 +1  -0.00477738 +1  -0.00201181 +1
 
 TIME=     0.04
  REACTANTS AND PRODUCTS SWAPPED AROUND
 *+*+*+*+*+*+*+*+*+*+*+*+*+*+*+*+*+*+*+*+*+*+*+*+*+*+*+*+*+*+*+*+*+*+*+*+*+*+*+*+
            BAR SHORTENED BY       0.000 PERCENT
 GRADIENT CRITERION IN FLEPO =    10.000


          FOR POINT   75 FIRST  STRUCTURE
 DISTANCE A - B      0.517498
 HEAT              -76.360100
 GRADIENT NORM      24.355148
 DIRECTION COSINE    0.919910
 PM7 XYZ CHARGE=-1


  C    -0.60632370 +1   0.01534507 +1  -0.00809343 +1
 Cl     2.04440122 +1   0.01156684 +1   0.02318282 +1
  H    -0.35200846 +1   1.07018926 +1  -0.00780964 +1
  H    -0.33804060 +1  -0.51015226 +1  -0.91691075 +1
  H    -0.33706203 +1  -0.50524181 +1   0.90450512 +1
 Br    -2.65540901 +1  -0.00455855 +1   0.00128025 +1
 
 TIME=     0.01
  REACTANTS AND PRODUCTS SWAPPED AROUND
 *+*+*+*+*+*+*+*+*+*+*+*+*+*+*+*+*+*+*+*+*+*+*+*+*+*+*+*+*+*+*+*+*+*+*+*+*+*+*+*+
            BAR SHORTENED BY       1.000 PERCENT
 GRADIENT CRITERION IN FLEPO =    10.000


          FOR POINT   76 SECOND STRUCTURE
 DISTANCE A - B      0.512323
 HEAT              -76.162124
 GRADIENT NORM      39.302952
 DIRECTION COSINE    0.914538
 PM7 XYZ CHARGE=-1


  C    -0.18264427 +1   0.01764600 +1  -0.00171597 +1
 Cl     1.80409844 +1   0.00500868 +1   0.01975295 +1
  H    -0.36067569 +1   1.08198842 +1  -0.00582756 +1
  H    -0.34446191 +1  -0.51637552 +1  -0.92660150 +1
  H    -0.35837988 +1  -0.51778464 +1   0.92050357 +1
 Br    -2.80985464 +1  -0.00477519 +1  -0.00197889 +1
 
 TIME=     0.01
  REACTANTS AND PRODUCTS SWAPPED AROUND
 *+*+*+*+*+*+*+*+*+*+*+*+*+*+*+*+*+*+*+*+*+*+*+*+*+*+*+*+*+*+*+*+*+*+*+*+*+*+*+*+
            BAR SHORTENED BY       1.000 PERCENT
 GRADIENT CRITERION IN FLEPO =    10.000


          FOR POINT   77 FIRST  STRUCTURE
 DISTANCE A - B      0.507199
 HEAT              -76.241302
 GRADIENT NORM      25.812501
 DIRECTION COSINE    0.906889
 PM7 XYZ CHARGE=-1


  C    -0.60208691 +1   0.01536808 +1  -0.00802965 +1
 Cl     2.04199819 +1   0.01150125 +1   0.02314852 +1
  H    -0.35209513 +1   1.07030725 +1  -0.00778982 +1
  H    -0.33810481 +1  -0.51021449 +1  -0.91700766 +1
  H    -0.33727521 +1  -0.50536724 +1   0.90466510 +1
 Br    -2.65695346 +1  -0.00456071 +1   0.00124766 +1
 
 *+*+*+*+*+*+*+*+*+*+*+*+*+*+*+*+*+*+*+*+*+*+*+*+*+*+*+*+*+*+*+*+*+*+*+*+*+*+*+*+
            BAR SHORTENED BY       1.000 PERCENT
 GRADIENT CRITERION IN FLEPO =    10.000


          FOR POINT   78 FIRST  STRUCTURE
 DISTANCE A - B      0.502127
 HEAT              -76.117840
 GRADIENT NORM      27.199689
 DIRECTION COSINE    0.999550
 PM7 XYZ CHARGE=-1


  C    -0.59789248 +1   0.01539086 +1  -0.00796652 +1
 Cl     2.03961920 +1   0.01143633 +1   0.02311457 +1
  H    -0.35218093 +1   1.07042407 +1  -0.00777019 +1
  H    -0.33816838 +1  -0.51027610 +1  -0.91710360 +1
  H    -0.33748625 +1  -0.50549141 +1   0.90482349 +1
 Br    -2.65848247 +1  -0.00456286 +1   0.00121539 +1
 
 TIME=     0.02
  REACTANTS AND PRODUCTS SWAPPED AROUND
 *+*+*+*+*+*+*+*+*+*+*+*+*+*+*+*+*+*+*+*+*+*+*+*+*+*+*+*+*+*+*+*+*+*+*+*+*+*+*+*+
            BAR SHORTENED BY       1.000 PERCENT
 GRADIENT CRITERION IN FLEPO =    10.000


          FOR POINT   79 SECOND STRUCTURE
 DISTANCE A - B      0.497106
 HEAT              -75.957376
 GRADIENT NORM      39.687768
 DIRECTION COSINE    0.892265
 PM7 XYZ CHARGE=-1


  C    -0.18679675 +1   0.01762345 +1  -0.00177847 +1
 Cl     1.80645365 +1   0.00507296 +1   0.01978656 +1
  H    -0.36059074 +1   1.08187278 +1  -0.00584698 +1
  H    -0.34439897 +1  -0.51631452 +1  -0.92650652 +1
  H    -0.35817094 +1  -0.51766170 +1   0.92034677 +1
 Br    -2.80834092 +1  -0.00477306 +1  -0.00194695 +1
 
 TIME=     0.01
  REACTANTS AND PRODUCTS SWAPPED AROUND
 *+*+*+*+*+*+*+*+*+*+*+*+*+*+*+*+*+*+*+*+*+*+*+*+*+*+*+*+*+*+*+*+*+*+*+*+*+*+*+*+
            BAR SHORTENED BY       1.000 PERCENT
 GRADIENT CRITERION IN FLEPO =    10.000


          FOR POINT   80 FIRST  STRUCTURE
 DISTANCE A - B      0.492135
 HEAT              -76.070750
 GRADIENT NORM      24.526134
 DIRECTION COSINE    0.909447
 PM7 XYZ CHARGE=-1


  C    -0.59153188 +1   0.01377181 +1  -0.00607603 +1
 Cl     2.03018576 +1   0.01326986 +1   0.02132707 +1
  H    -0.34874401 +1   1.07260147 +1  -0.00533473 +1
  H    -0.33493436 +1  -0.51232246 +1  -0.91926721 +1
  H    -0.33432776 +1  -0.50872757 +1   0.90810391 +1
 Br    -2.64390279 +1  -0.00272555 +1  -0.00114407 +1
 
 *+*+*+*+*+*+*+*+*+*+*+*+*+*+*+*+*+*+*+*+*+*+*+*+*+*+*+*+*+*+*+*+*+*+*+*+*+*+*+*+
            BAR SHORTENED BY       1.000 PERCENT
 GRADIENT CRITERION IN FLEPO =    10.000


          FOR POINT   81 FIRST  STRUCTURE
 DISTANCE A - B      0.487214
 HEAT              -75.956558
 GRADIENT NORM      25.749599
 DIRECTION COSINE    0.999232
 PM7 XYZ CHARGE=-1


  C    -0.58748452 +1   0.01381033 +1  -0.00603306 +1
 Cl     2.02794844 +1   0.01318789 +1   0.02131167 +1
  H    -0.34886248 +1   1.07269419 +1  -0.00533985 +1
  H    -0.33502901 +1  -0.51236238 +1  -0.91933960 +1
  H    -0.33456619 +1  -0.50881691 +1   0.90822634 +1
 Br    -2.64554717 +1  -0.00274602 +1  -0.00115210 +1
 
 TIME=     0.02
  REACTANTS AND PRODUCTS SWAPPED AROUND
 *+*+*+*+*+*+*+*+*+*+*+*+*+*+*+*+*+*+*+*+*+*+*+*+*+*+*+*+*+*+*+*+*+*+*+*+*+*+*+*+
            BAR SHORTENED BY       1.000 PERCENT
 GRADIENT CRITERION IN FLEPO =    10.000


          FOR POINT   82 SECOND STRUCTURE
 DISTANCE A - B      0.482342
 HEAT              -75.765020
 GRADIENT NORM      39.983501
 DIRECTION COSINE    0.900125
 PM7 XYZ CHARGE=-1


  C    -0.19080363 +1   0.01758532 +1  -0.00182102 +1
 Cl     1.80866860 +1   0.00515411 +1   0.01980181 +1
  H    -0.36047346 +1   1.08178099 +1  -0.00584191 +1
  H    -0.34430527 +1  -0.51627500 +1  -0.92643485 +1
  H    -0.35793490 +1  -0.51757326 +1   0.92022557 +1
 Br    -2.80671298 +1  -0.00475279 +1  -0.00193900 +1
 
 TIME=     0.01
  REACTANTS AND PRODUCTS SWAPPED AROUND
 *+*+*+*+*+*+*+*+*+*+*+*+*+*+*+*+*+*+*+*+*+*+*+*+*+*+*+*+*+*+*+*+*+*+*+*+*+*+*+*+
            BAR SHORTENED BY       1.000 PERCENT
 GRADIENT CRITERION IN FLEPO =    10.000


          FOR POINT   83 FIRST  STRUCTURE
 DISTANCE A - B      0.477518
 HEAT              -75.839518
 GRADIENT NORM      26.911103
 DIRECTION COSINE    0.893957
 PM7 XYZ CHARGE=-1


  C    -0.58351772 +1   0.01384808 +1  -0.00599094 +1
 Cl     2.02575564 +1   0.01310755 +1   0.02129657 +1
  H    -0.34897859 +1   1.07278506 +1  -0.00534487 +1
  H    -0.33512177 +1  -0.51240151 +1  -0.91941055 +1
  H    -0.33479988 +1  -0.50890447 +1   0.90834633 +1
 Br    -2.64715883 +1  -0.00276609 +1  -0.00115997 +1
 
 *+*+*+*+*+*+*+*+*+*+*+*+*+*+*+*+*+*+*+*+*+*+*+*+*+*+*+*+*+*+*+*+*+*+*+*+*+*+*+*+
            BAR SHORTENED BY       1.000 PERCENT
 GRADIENT CRITERION IN FLEPO =    10.000


          FOR POINT   84 FIRST  STRUCTURE
 DISTANCE A - B      0.472743
 HEAT              -75.718984
 GRADIENT NORM      28.018597
 DIRECTION COSINE    0.999533
 PM7 XYZ CHARGE=-1


  C    -0.57959057 +1   0.01388545 +1  -0.00594924 +1
 Cl     2.02358477 +1   0.01302801 +1   0.02128162 +1
  H    -0.34909353 +1   1.07287501 +1  -0.00534984 +1
  H    -0.33521360 +1  -0.51244024 +1  -0.91948080 +1
  H    -0.33503123 +1  -0.50899116 +1   0.90846512 +1
 Br    -2.64875437 +1  -0.00278596 +1  -0.00116776 +1
 
 TIME=     0.02
  REACTANTS AND PRODUCTS SWAPPED AROUND
 *+*+*+*+*+*+*+*+*+*+*+*+*+*+*+*+*+*+*+*+*+*+*+*+*+*+*+*+*+*+*+*+*+*+*+*+*+*+*+*+
            BAR SHORTENED BY       1.000 PERCENT
 GRADIENT CRITERION IN FLEPO =    10.000


          FOR POINT   85 SECOND STRUCTURE
 DISTANCE A - B      0.468016
 HEAT              -75.577541
 GRADIENT NORM      40.221360
 DIRECTION COSINE    0.881664
 PM7 XYZ CHARGE=-1


  C    -0.19469150 +1   0.01754832 +1  -0.00186230 +1
 Cl     1.81081776 +1   0.00523285 +1   0.01981661 +1
  H    -0.36035966 +1   1.08169193 +1  -0.00583699 +1
  H    -0.34421435 +1  -0.51623665 +1  -0.92636531 +1
  H    -0.35770586 +1  -0.51748743 +1   0.92010796 +1
 Br    -2.80513339 +1  -0.00473313 +1  -0.00193129 +1
 
 TIME=     0.00
  REACTANTS AND PRODUCTS SWAPPED AROUND
 *+*+*+*+*+*+*+*+*+*+*+*+*+*+*+*+*+*+*+*+*+*+*+*+*+*+*+*+*+*+*+*+*+*+*+*+*+*+*+*+
            BAR SHORTENED BY       1.000 PERCENT
 GRADIENT CRITERION IN FLEPO =    10.000


          FOR POINT   86 FIRST  STRUCTURE
 DISTANCE A - B      0.463335
 HEAT              -75.785705
 GRADIENT NORM      24.033172
 DIRECTION COSINE    0.950439
 PM7 XYZ CHARGE=-1


  C    -0.58388262 +1   0.01431650 +1  -0.00656326 +1
 Cl     2.00384096 +1   0.01122901 +1   0.02038078 +1
  H    -0.33569943 +1   1.07678928 +1  -0.00688880 +1
  H    -0.32343466 +1  -0.51388031 +1  -0.92168120 +1
  H    -0.32886169 +1  -0.51075762 +1   0.91034505 +1
 Br    -2.65086479 +1  -0.00313808 +1  -0.00601169 +1
 
 *+*+*+*+*+*+*+*+*+*+*+*+*+*+*+*+*+*+*+*+*+*+*+*+*+*+*+*+*+*+*+*+*+*+*+*+*+*+*+*+
            BAR SHORTENED BY       1.000 PERCENT
 GRADIENT CRITERION IN FLEPO =    10.000


          FOR POINT   87 FIRST  STRUCTURE
 DISTANCE A - B      0.458702
 HEAT              -75.675211
 GRADIENT NORM      25.025337
 DIRECTION COSINE    0.999189
 PM7 XYZ CHARGE=-1


  C    -0.57999071 +1   0.01434881 +1  -0.00651625 +1
 Cl     2.00191073 +1   0.01116905 +1   0.02037514 +1
  H    -0.33594603 +1   1.07683831 +1  -0.00687828 +1
  H    -0.32364245 +1  -0.51390388 +1  -0.92172804 +1
  H    -0.32915013 +1  -0.51082492 +1   0.91044268 +1
 Br    -2.65240748 +1  -0.00315403 +1  -0.00597088 +1
 
 *+*+*+*+*+*+*+*+*+*+*+*+*+*+*+*+*+*+*+*+*+*+*+*+*+*+*+*+*+*+*+*+*+*+*+*+*+*+*+*+
            BAR SHORTENED BY       1.000 PERCENT
 GRADIENT CRITERION IN FLEPO =    10.000


          FOR POINT   88 FIRST  STRUCTURE
 DISTANCE A - B      0.454115
 HEAT              -75.561562
 GRADIENT NORM      25.976650
 DIRECTION COSINE    0.999346
 PM7 XYZ CHARGE=-1


  C    -0.57613771 +1   0.01438081 +1  -0.00646971 +1
 Cl     1.99999980 +1   0.01110969 +1   0.02036955 +1
  H    -0.33619017 +1   1.07688684 +1  -0.00686787 +1
  H    -0.32384817 +1  -0.51392720 +1  -0.92177442 +1
  H    -0.32943569 +1  -0.51089155 +1   0.91053933 +1
 Br    -2.65393474 +1  -0.00316982 +1  -0.00593049 +1
 
 TIME=     0.03
  REACTANTS AND PRODUCTS SWAPPED AROUND
 *+*+*+*+*+*+*+*+*+*+*+*+*+*+*+*+*+*+*+*+*+*+*+*+*+*+*+*+*+*+*+*+*+*+*+*+*+*+*+*+
            BAR SHORTENED BY       0.000 PERCENT
 GRADIENT CRITERION IN FLEPO =    10.000


          FOR POINT   89 SECOND STRUCTURE
 DISTANCE A - B      0.454115
 HEAT              -75.577541
 GRADIENT NORM      40.221336
 DIRECTION COSINE    0.936291
 PM7 XYZ CHARGE=-1


  C    -0.19469150 +1   0.01754832 +1  -0.00186230 +1
 Cl     1.81081776 +1   0.00523285 +1   0.01981661 +1
  H    -0.36035966 +1   1.08169193 +1  -0.00583699 +1
  H    -0.34421435 +1  -0.51623665 +1  -0.92636531 +1
  H    -0.35770586 +1  -0.51748743 +1   0.92010796 +1
 Br    -2.80513339 +1  -0.00473313 +1  -0.00193129 +1
 
 *+*+*+*+*+*+*+*+*+*+*+*+*+*+*+*+*+*+*+*+*+*+*+*+*+*+*+*+*+*+*+*+*+*+*+*+*+*+*+*+
            BAR SHORTENED BY       1.000 PERCENT
 GRADIENT CRITERION IN FLEPO =    10.000


          FOR POINT   90 SECOND STRUCTURE
 DISTANCE A - B      0.449574
 HEAT              -75.398070
 GRADIENT NORM      40.380362
 DIRECTION COSINE    0.999857
 PM7 XYZ CHARGE=-1


  C    -0.19850596 +1   0.01751664 +1  -0.00190838 +1
 Cl     1.81270958 +1   0.00529161 +1   0.01982214 +1
  H    -0.36011797 +1   1.08164388 +1  -0.00584730 +1
  H    -0.34401069 +1  -0.51621356 +1  -0.92631940 +1
  H    -0.35742316 +1  -0.51742148 +1   0.92001227 +1
 Br    -2.80362141 +1  -0.00471749 +1  -0.00197128 +1
 
 TIME=     0.02
  REACTANTS AND PRODUCTS SWAPPED AROUND
 *+*+*+*+*+*+*+*+*+*+*+*+*+*+*+*+*+*+*+*+*+*+*+*+*+*+*+*+*+*+*+*+*+*+*+*+*+*+*+*+
            BAR SHORTENED BY       1.000 PERCENT
 GRADIENT CRITERION IN FLEPO =    10.000


          FOR POINT   91 FIRST  STRUCTURE
 DISTANCE A - B      0.445078
 HEAT              -75.446350
 GRADIENT NORM      26.874095
 DIRECTION COSINE    0.924217
 PM7 XYZ CHARGE=-1


  C    -0.57236140 +1   0.01441217 +1  -0.00642410 +1
 Cl     1.99812690 +1   0.01105150 +1   0.02036408 +1
  H    -0.33642945 +1   1.07693441 +1  -0.00685766 +1
  H    -0.32404980 +1  -0.51395007 +1  -0.92181987 +1
  H    -0.32971556 +1  -0.51095685 +1   0.91063406 +1
 Br    -2.65543161 +1  -0.00318530 +1  -0.00589090 +1
 
 *+*+*+*+*+*+*+*+*+*+*+*+*+*+*+*+*+*+*+*+*+*+*+*+*+*+*+*+*+*+*+*+*+*+*+*+*+*+*+*+
            BAR SHORTENED BY       1.000 PERCENT
 GRADIENT CRITERION IN FLEPO =    10.000


          FOR POINT   92 FIRST  STRUCTURE
 DISTANCE A - B      0.440627
 HEAT              -75.328835
 GRADIENT NORM      27.724637
 DIRECTION COSINE    0.999563
 PM7 XYZ CHARGE=-1


  C    -0.56862284 +1   0.01444321 +1  -0.00637894 +1
 Cl     1.99627273 +1   0.01099391 +1   0.02035866 +1
  H    -0.33666633 +1   1.07698151 +1  -0.00684756 +1
  H    -0.32424941 +1  -0.51397270 +1  -0.92186486 +1
  H    -0.32999264 +1  -0.51102149 +1   0.91072784 +1
 Br    -2.65691350 +1  -0.00320062 +1  -0.00585170 +1
 
 TIME=     0.02
  REACTANTS AND PRODUCTS SWAPPED AROUND
 *+*+*+*+*+*+*+*+*+*+*+*+*+*+*+*+*+*+*+*+*+*+*+*+*+*+*+*+*+*+*+*+*+*+*+*+*+*+*+*+
            BAR SHORTENED BY       1.000 PERCENT
 GRADIENT CRITERION IN FLEPO =    10.000


          FOR POINT   93 SECOND STRUCTURE
 DISTANCE A - B      0.436221
 HEAT              -75.223848
 GRADIENT NORM      40.494430
 DIRECTION COSINE    0.910995
 PM7 XYZ CHARGE=-1


  C    -0.20220713 +1   0.01748591 +1  -0.00195308 +1
 Cl     1.81454521 +1   0.00534864 +1   0.01982751 +1
  H    -0.35988345 +1   1.08159726 +1  -0.00585730 +1
  H    -0.34381308 +1  -0.51619115 +1  -0.92627485 +1
  H    -0.35714885 +1  -0.51735748 +1   0.91991943 +1
 Br    -2.80215433 +1  -0.00470232 +1  -0.00201009 +1
 
 TIME=     0.01
  REACTANTS AND PRODUCTS SWAPPED AROUND
 *+*+*+*+*+*+*+*+*+*+*+*+*+*+*+*+*+*+*+*+*+*+*+*+*+*+*+*+*+*+*+*+*+*+*+*+*+*+*+*+
            BAR SHORTENED BY       1.000 PERCENT
 GRADIENT CRITERION IN FLEPO =    10.000


          FOR POINT   94 FIRST  STRUCTURE
 DISTANCE A - B      0.431859
 HEAT              -75.217707
 GRADIENT NORM      28.520757
 DIRECTION COSINE    0.902368
 PM7 XYZ CHARGE=-1


  C    -0.56495869 +1   0.01447364 +1  -0.00633468 +1
 Cl     1.99445545 +1   0.01093745 +1   0.02035335 +1
  H    -0.33689851 +1   1.07702766 +1  -0.00683766 +1
  H    -0.32444504 +1  -0.51399489 +1  -0.92190896 +1
  H    -0.33026420 +1  -0.51108485 +1   0.91081976 +1
 Br    -2.65836591 +1  -0.00321564 +1  -0.00581328 +1
 
 TIME=     0.01
  REACTANTS AND PRODUCTS SWAPPED AROUND
 *+*+*+*+*+*+*+*+*+*+*+*+*+*+*+*+*+*+*+*+*+*+*+*+*+*+*+*+*+*+*+*+*+*+*+*+*+*+*+*+
            BAR SHORTENED BY       1.000 PERCENT
 GRADIENT CRITERION IN FLEPO =    10.000


          FOR POINT   95 SECOND STRUCTURE
 DISTANCE A - B      0.427540
 HEAT              -75.060390
 GRADIENT NORM      40.563645
 DIRECTION COSINE    0.896935
 PM7 XYZ CHARGE=-1


  C    -0.20583464 +1   0.01745578 +1  -0.00199690 +1
 Cl     1.81634432 +1   0.00540453 +1   0.01983276 +1
  H    -0.35965360 +1   1.08155156 +1  -0.00586711 +1
  H    -0.34361940 +1  -0.51616919 +1  -0.92623119 +1
  H    -0.35688001 +1  -0.51729475 +1   0.91982843 +1
 Br    -2.80071644 +1  -0.00468746 +1  -0.00204812 +1
 
 TIME=     0.01
  REACTANTS AND PRODUCTS SWAPPED AROUND
 *+*+*+*+*+*+*+*+*+*+*+*+*+*+*+*+*+*+*+*+*+*+*+*+*+*+*+*+*+*+*+*+*+*+*+*+*+*+*+*+
            BAR SHORTENED BY       1.000 PERCENT
 GRADIENT CRITERION IN FLEPO =    10.000


          FOR POINT   96 FIRST  STRUCTURE
 DISTANCE A - B      0.423265
 HEAT              -75.099088
 GRADIENT NORM      29.258896
 DIRECTION COSINE    0.888016
 PM7 XYZ CHARGE=-1


  C    -0.56136744 +1   0.01450346 +1  -0.00629130 +1
 Cl     1.99267434 +1   0.01088212 +1   0.02034814 +1
  H    -0.33712606 +1   1.07707290 +1  -0.00682795 +1
  H    -0.32463679 +1  -0.51401663 +1  -0.92195218 +1
  H    -0.33053036 +1  -0.51114695 +1   0.91090984 +1
 Br    -2.65978942 +1  -0.00323036 +1  -0.00577563 +1
 
 *+*+*+*+*+*+*+*+*+*+*+*+*+*+*+*+*+*+*+*+*+*+*+*+*+*+*+*+*+*+*+*+*+*+*+*+*+*+*+*+
            BAR SHORTENED BY       1.000 PERCENT
 GRADIENT CRITERION IN FLEPO =    10.000


          FOR POINT   97 FIRST  STRUCTURE
 DISTANCE A - B      0.419032
 HEAT              -74.979248
 GRADIENT NORM      29.949058
 DIRECTION COSINE    0.999736
 PM7 XYZ CHARGE=-1


  C    -0.55781212 +1   0.01453298 +1  -0.00624836 +1
 Cl     1.99091104 +1   0.01082735 +1   0.02034299 +1
  H    -0.33735133 +1   1.07711769 +1  -0.00681834 +1
  H    -0.32482661 +1  -0.51403816 +1  -0.92199497 +1
  H    -0.33079385 +1  -0.51120843 +1   0.91099903 +1
 Br    -2.66119869 +1  -0.00324493 +1  -0.00573836 +1
 
 TIME=     0.02
  REACTANTS AND PRODUCTS SWAPPED AROUND
 *+*+*+*+*+*+*+*+*+*+*+*+*+*+*+*+*+*+*+*+*+*+*+*+*+*+*+*+*+*+*+*+*+*+*+*+*+*+*+*+
            BAR SHORTENED BY       1.000 PERCENT
 GRADIENT CRITERION IN FLEPO =    10.000


          FOR POINT   98 SECOND STRUCTURE
 DISTANCE A - B      0.414842
 HEAT              -74.895167
 GRADIENT NORM      40.593385
 DIRECTION COSINE    0.873061
 PM7 XYZ CHARGE=-1


  C    -0.20935442 +1   0.01742656 +1  -0.00203941 +1
 Cl     1.81808998 +1   0.00545875 +1   0.01983787 +1
  H    -0.35943058 +1   1.08150722 +1  -0.00587662 +1
  H    -0.34343147 +1  -0.51614788 +1  -0.92618883 +1
  H    -0.35661914 +1  -0.51723389 +1   0.91974014 +1
 Br    -2.79932127 +1  -0.00467303 +1  -0.00208502 +1
 
 TIME=     0.01
  REACTANTS AND PRODUCTS SWAPPED AROUND
 *+*+*+*+*+*+*+*+*+*+*+*+*+*+*+*+*+*+*+*+*+*+*+*+*+*+*+*+*+*+*+*+*+*+*+*+*+*+*+*+
            BAR SHORTENED BY       1.000 PERCENT
 GRADIENT CRITERION IN FLEPO =    10.000


          FOR POINT   99 FIRST  STRUCTURE
 DISTANCE A - B      0.410693
 HEAT              -74.859686
 GRADIENT NORM      30.585160
 DIRECTION COSINE    0.864142
 PM7 XYZ CHARGE=-1


  C    -0.55432754 +1   0.01456192 +1  -0.00620627 +1
 Cl     1.98918283 +1   0.01077366 +1   0.02033794 +1
  H    -0.33757212 +1   1.07716159 +1  -0.00680893 +1
  H    -0.32501266 +1  -0.51405925 +1  -0.92203691 +1
  H    -0.33105211 +1  -0.51126868 +1   0.91108644 +1
 Br    -2.66257991 +1  -0.00325921 +1  -0.00570182 +1
 
 TIME=     0.01
  REACTANTS AND PRODUCTS SWAPPED AROUND
 *+*+*+*+*+*+*+*+*+*+*+*+*+*+*+*+*+*+*+*+*+*+*+*+*+*+*+*+*+*+*+*+*+*+*+*+*+*+*+*+
            BAR SHORTENED BY       1.000 PERCENT
 GRADIENT CRITERION IN FLEPO =    10.000


          FOR POINT  100 SECOND STRUCTURE
 DISTANCE A - B      0.406587
 HEAT              -74.846450
 GRADIENT NORM      37.307626
 DIRECTION COSINE    0.904445
 PM7 XYZ CHARGE=-1


  C    -0.21106073 +1   0.01545536 +1  -0.00087923 +1
 Cl     1.81228495 +1   0.01036066 +1   0.02156596 +1
  H    -0.35400176 +1   1.08445204 +1  -0.00224312 +1
  H    -0.33943697 +1  -0.51855835 +1  -0.92869683 +1
  H    -0.35320337 +1  -0.52509837 +1   0.92962630 +1
 Br    -2.78305498 +1  -0.00279609 +1  -0.00544748 +1
 
 TIME=     0.02
  REACTANTS AND PRODUCTS SWAPPED AROUND
 *+*+*+*+*+*+*+*+*+*+*+*+*+*+*+*+*+*+*+*+*+*+*+*+*+*+*+*+*+*+*+*+*+*+*+*+*+*+*+*+
            BAR SHORTENED BY       1.000 PERCENT
 GRADIENT CRITERION IN FLEPO =    10.000


          FOR POINT  101 FIRST  STRUCTURE
 DISTANCE A - B      0.402521
 HEAT              -74.850074
 GRADIENT NORM      27.125610
 DIRECTION COSINE    0.923313
 PM7 XYZ CHARGE=-1


  C    -0.54502904 +1   0.01625902 +1  -0.00752875 +1
 Cl     1.97805271 +1   0.02846154 +1   0.03879152 +1
  H    -0.33230579 +1   1.07978389 +1  -0.00387854 +1
  H    -0.32149455 +1  -0.51574234 +1  -0.92401929 +1
  H    -0.32917463 +1  -0.51355513 +1   0.91384544 +1
 Br    -2.63980642 +1  -0.00043769 +1  -0.00819856 +1
 
 *+*+*+*+*+*+*+*+*+*+*+*+*+*+*+*+*+*+*+*+*+*+*+*+*+*+*+*+*+*+*+*+*+*+*+*+*+*+*+*+
            BAR SHORTENED BY       1.000 PERCENT
 GRADIENT CRITERION IN FLEPO =    10.000


          FOR POINT  102 FIRST  STRUCTURE
 DISTANCE A - B      0.398495
 HEAT              -74.737114
 GRADIENT NORM      27.650887
 DIRECTION COSINE    0.999706
 PM7 XYZ CHARGE=-1


  C    -0.54168936 +1   0.01625098 +1  -0.00746225 +1
 Cl     1.97639503 +1   0.02828053 +1   0.03861926 +1
  H    -0.33252275 +1   1.07983057 +1  -0.00386219 +1
  H    -0.32167397 +1  -0.51577050 +1  -0.92406606 +1
  H    -0.32941492 +1  -0.51367056 +1   0.91400325 +1
 Br    -2.64123891 +1  -0.00046127 +1  -0.00817105 +1
 
 TIME=     0.02
  REACTANTS AND PRODUCTS SWAPPED AROUND
 *+*+*+*+*+*+*+*+*+*+*+*+*+*+*+*+*+*+*+*+*+*+*+*+*+*+*+*+*+*+*+*+*+*+*+*+*+*+*+*+
            BAR SHORTENED BY       1.000 PERCENT
 GRADIENT CRITERION IN FLEPO =    10.000


          FOR POINT  103 SECOND STRUCTURE
 DISTANCE A - B      0.394510
 HEAT              -74.694525
 GRADIENT NORM      37.215453
 DIRECTION COSINE    0.916024
 PM7 XYZ CHARGE=-1


  C    -0.21436701 +1   0.01546332 +1  -0.00094506 +1
 Cl     1.81392605 +1   0.01053986 +1   0.02173650 +1
  H    -0.35378697 +1   1.08440582 +1  -0.00225931 +1
  H    -0.33925934 +1  -0.51853047 +1  -0.92865053 +1
  H    -0.35296549 +1  -0.52498409 +1   0.92947007 +1
 Br    -2.78163682 +1  -0.00277274 +1  -0.00547472 +1
 
 TIME=     0.01
  REACTANTS AND PRODUCTS SWAPPED AROUND
 *+*+*+*+*+*+*+*+*+*+*+*+*+*+*+*+*+*+*+*+*+*+*+*+*+*+*+*+*+*+*+*+*+*+*+*+*+*+*+*+
            BAR SHORTENED BY       1.000 PERCENT
 GRADIENT CRITERION IN FLEPO =    10.000


          FOR POINT  104 FIRST  STRUCTURE
 DISTANCE A - B      0.390565
 HEAT              -74.631583
[...]
  H    -0.33374547 +1   1.08676726 +1   0.00161424 +1
  H    -0.32019624 +1  -0.52025363 +1  -0.93005547 +1
  H    -0.33598321 +1  -0.52265555 +1   0.93360721 +1
 Br    -2.71188088 +1   0.00048184 +1  -0.01003863 +1
 
 TIME=     0.01
  REACTANTS AND PRODUCTS SWAPPED AROUND
 *+*+*+*+*+*+*+*+*+*+*+*+*+*+*+*+*+*+*+*+*+*+*+*+*+*+*+*+*+*+*+*+*+*+*+*+*+*+*+*+
            BAR SHORTENED BY       1.000 PERCENT
 GRADIENT CRITERION IN FLEPO =    10.000


          FOR POINT  225 FIRST  STRUCTURE
 DISTANCE A - B      0.119302
 HEAT              -71.574647
 GRADIENT NORM      16.019084
 DIRECTION COSINE    0.396109
 PM7 XYZ CHARGE=-1


  C    -0.41461693 +1   0.01334136 +1  -0.00165434 +1
 Cl     1.88753073 +1   0.02228812 +1   0.03108888 +1
  H    -0.32804467 +1   1.08578202 +1   0.00153630 +1
  H    -0.31501697 +1  -0.51986199 +1  -0.92946252 +1
  H    -0.32718259 +1  -0.52195042 +1   0.92882276 +1
 Br    -2.66647862 +1   0.00128497 +1  -0.01050223 +1
 
 TIME=     0.01
  REACTANTS AND PRODUCTS SWAPPED AROUND
 *+*+*+*+*+*+*+*+*+*+*+*+*+*+*+*+*+*+*+*+*+*+*+*+*+*+*+*+*+*+*+*+*+*+*+*+*+*+*+*+
            BAR SHORTENED BY       1.000 PERCENT
 GRADIENT CRITERION IN FLEPO =    10.000


          FOR POINT  226 SECOND STRUCTURE
 DISTANCE A - B      0.118109
 HEAT              -71.571486
 GRADIENT NORM      17.460009
 DIRECTION COSINE    0.386047
 PM7 XYZ CHARGE=-1


  C    -0.31495742 +1   0.01382213 +1  -0.00031692 +1
 Cl     1.84472740 +1   0.02079061 +1   0.02980553 +1
  H    -0.33368847 +1   1.08675740 +1   0.00161346 +1
  H    -0.32014445 +1  -0.52024972 +1  -0.93004954 +1
  H    -0.33589521 +1  -0.52264850 +1   0.93355937 +1
 Br    -2.71142685 +1   0.00048987 +1  -0.01004327 +1
 
 TIME=     0.01
  REACTANTS AND PRODUCTS SWAPPED AROUND
 *+*+*+*+*+*+*+*+*+*+*+*+*+*+*+*+*+*+*+*+*+*+*+*+*+*+*+*+*+*+*+*+*+*+*+*+*+*+*+*+
            BAR SHORTENED BY       1.000 PERCENT
 GRADIENT CRITERION IN FLEPO =    10.000


          FOR POINT  227 FIRST  STRUCTURE
 DISTANCE A - B      0.116928
 HEAT              -71.558969
 GRADIENT NORM      15.862024
 DIRECTION COSINE    0.375477
 PM7 XYZ CHARGE=-1


  C    -0.41362034 +1   0.01334617 +1  -0.00164097 +1
 Cl     1.88710269 +1   0.02227315 +1   0.03107605 +1
  H    -0.32810110 +1   1.08579178 +1   0.00153707 +1
  H    -0.31506824 +1  -0.51986587 +1  -0.92946839 +1
  H    -0.32726972 +1  -0.52195740 +1   0.92887012 +1
 Br    -2.66692810 +1   0.00127702 +1  -0.01049764 +1
 
 TIME=     0.01
  REACTANTS AND PRODUCTS SWAPPED AROUND
 *+*+*+*+*+*+*+*+*+*+*+*+*+*+*+*+*+*+*+*+*+*+*+*+*+*+*+*+*+*+*+*+*+*+*+*+*+*+*+*+
            BAR SHORTENED BY       1.000 PERCENT
 GRADIENT CRITERION IN FLEPO =    10.000


          FOR POINT  228 SECOND STRUCTURE
 DISTANCE A - B      0.115758
 HEAT              -71.555098
 GRADIENT NORM      17.255461
 DIRECTION COSINE    0.365298
 PM7 XYZ CHARGE=-1


  C    -0.31594405 +1   0.01381737 +1  -0.00033016 +1
 Cl     1.84515116 +1   0.02080543 +1   0.02981823 +1
  H    -0.33363259 +1   1.08674775 +1   0.00161270 +1
  H    -0.32009369 +1  -0.52024588 +1  -0.93004373 +1
  H    -0.33580895 +1  -0.52264158 +1   0.93351247 +1
 Br    -2.71098187 +1   0.00049774 +1  -0.01004781 +1
 
 TIME=     0.02
  REACTANTS AND PRODUCTS SWAPPED AROUND
 *+*+*+*+*+*+*+*+*+*+*+*+*+*+*+*+*+*+*+*+*+*+*+*+*+*+*+*+*+*+*+*+*+*+*+*+*+*+*+*+
            BAR SHORTENED BY       1.000 PERCENT
 GRADIENT CRITERION IN FLEPO =    10.000


          FOR POINT  229 FIRST  STRUCTURE
 DISTANCE A - B      0.114601
 HEAT              -71.543866
 GRADIENT NORM      15.708012
 DIRECTION COSINE    0.354633
 PM7 XYZ CHARGE=-1


  C    -0.41264357 +1   0.01335088 +1  -0.00162786 +1
 Cl     1.88668318 +1   0.02225847 +1   0.03106347 +1
  H    -0.32815642 +1   1.08580134 +1   0.00153783 +1
  H    -0.31511850 +1  -0.51986967 +1  -0.92947414 +1
  H    -0.32735511 +1  -0.52196424 +1   0.92891655 +1
 Br    -2.66736864 +1   0.00126923 +1  -0.01049314 +1
 
 TIME=     0.00
  REACTANTS AND PRODUCTS SWAPPED AROUND
 *+*+*+*+*+*+*+*+*+*+*+*+*+*+*+*+*+*+*+*+*+*+*+*+*+*+*+*+*+*+*+*+*+*+*+*+*+*+*+*+
            BAR SHORTENED BY       1.000 PERCENT
 GRADIENT CRITERION IN FLEPO =    10.000


          FOR POINT  230 SECOND STRUCTURE
 DISTANCE A - B      0.113455
 HEAT              -71.539346
 GRADIENT NORM      17.055804
 DIRECTION COSINE    0.344345
 PM7 XYZ CHARGE=-1


  C    -0.31691105 +1   0.01381271 +1  -0.00034314 +1
 Cl     1.84556648 +1   0.02081996 +1   0.02983069 +1
  H    -0.33357783 +1   1.08673828 +1   0.00161195 +1
  H    -0.32004394 +1  -0.52024212 +1  -0.93003803 +1
  H    -0.33572441 +1  -0.52263481 +1   0.93346651 +1
 Br    -2.71054573 +1   0.00050546 +1  -0.01005226 +1
 
 TIME=     0.01
  REACTANTS AND PRODUCTS SWAPPED AROUND
 *+*+*+*+*+*+*+*+*+*+*+*+*+*+*+*+*+*+*+*+*+*+*+*+*+*+*+*+*+*+*+*+*+*+*+*+*+*+*+*+
            BAR SHORTENED BY       1.000 PERCENT
 GRADIENT CRITERION IN FLEPO =    10.000


          FOR POINT  231 FIRST  STRUCTURE
 DISTANCE A - B      0.112320
 HEAT              -71.529317
 GRADIENT NORM      15.557072
 DIRECTION COSINE    0.333590
 PM7 XYZ CHARGE=-1


  C    -0.41168625 +1   0.01335550 +1  -0.00161501 +1
 Cl     1.88627201 +1   0.02224408 +1   0.03105114 +1
  H    -0.32821063 +1   1.08581071 +1   0.00153857 +1
  H    -0.31516775 +1  -0.51987339 +1  -0.92947978 +1
  H    -0.32743880 +1  -0.52197095 +1   0.92896205 +1
 Br    -2.66780041 +1   0.00126159 +1  -0.01048873 +1
 
 TIME=     0.02
  REACTANTS AND PRODUCTS SWAPPED AROUND
 *+*+*+*+*+*+*+*+*+*+*+*+*+*+*+*+*+*+*+*+*+*+*+*+*+*+*+*+*+*+*+*+*+*+*+*+*+*+*+*+
            BAR SHORTENED BY       1.000 PERCENT
 GRADIENT CRITERION IN FLEPO =    10.000


          FOR POINT  232 SECOND STRUCTURE
 DISTANCE A - B      0.111197
 HEAT              -71.524208
 GRADIENT NORM      16.860990
 DIRECTION COSINE    0.323200
 PM7 XYZ CHARGE=-1


  C    -0.31785880 +1   0.01380813 +1  -0.00035586 +1
 Cl     1.84597353 +1   0.02083420 +1   0.02984289 +1
  H    -0.33352416 +1   1.08672901 +1   0.00161122 +1
  H    -0.31999518 +1  -0.52023843 +1  -0.93003245 +1
  H    -0.33564156 +1  -0.52262817 +1   0.93342147 +1
 Br    -2.71011828 +1   0.00051302 +1  -0.01005663 +1
 
 TIME=     0.01
  REACTANTS AND PRODUCTS SWAPPED AROUND
 *+*+*+*+*+*+*+*+*+*+*+*+*+*+*+*+*+*+*+*+*+*+*+*+*+*+*+*+*+*+*+*+*+*+*+*+*+*+*+*+
            BAR SHORTENED BY       1.000 PERCENT
 GRADIENT CRITERION IN FLEPO =    10.000


          FOR POINT  233 FIRST  STRUCTURE
 DISTANCE A - B      0.110085
 HEAT              -71.515304
 GRADIENT NORM      15.409224
 DIRECTION COSINE    0.312364
 PM7 XYZ CHARGE=-1


  C    -0.41074797 +1   0.01336003 +1  -0.00160242 +1
 Cl     1.88586903 +1   0.02222998 +1   0.03103906 +1
  H    -0.32826377 +1   1.08581989 +1   0.00153930 +1
  H    -0.31521603 +1  -0.51987704 +1  -0.92948531 +1
  H    -0.32752083 +1  -0.52197752 +1   0.92900664 +1
 Br    -2.66822359 +1   0.00125410 +1  -0.01048441 +1
 
 TIME=     0.01
  REACTANTS AND PRODUCTS SWAPPED AROUND
 *+*+*+*+*+*+*+*+*+*+*+*+*+*+*+*+*+*+*+*+*+*+*+*+*+*+*+*+*+*+*+*+*+*+*+*+*+*+*+*+
            BAR SHORTENED BY       1.000 PERCENT
 GRADIENT CRITERION IN FLEPO =    10.000


          FOR POINT  234 SECOND STRUCTURE
 DISTANCE A - B      0.108984
 HEAT              -71.509660
 GRADIENT NORM      16.670965
 DIRECTION COSINE    0.301880
 PM7 XYZ CHARGE=-1


  C    -0.31878769 +1   0.01380365 +1  -0.00036832 +1
 Cl     1.84637249 +1   0.02084816 +1   0.02985485 +1
  H    -0.33347156 +1   1.08671992 +1   0.00161050 +1
  H    -0.31994738 +1  -0.52023482 +1  -0.93002698 +1
  H    -0.33556035 +1  -0.52262167 +1   0.93337732 +1
 Br    -2.70969933 +1   0.00052043 +1  -0.01006091 +1
 
 TIME=     0.02
  REACTANTS AND PRODUCTS SWAPPED AROUND
 *+*+*+*+*+*+*+*+*+*+*+*+*+*+*+*+*+*+*+*+*+*+*+*+*+*+*+*+*+*+*+*+*+*+*+*+*+*+*+*+
            BAR SHORTENED BY       1.000 PERCENT
 GRADIENT CRITERION IN FLEPO =    10.000


          FOR POINT  235 FIRST  STRUCTURE
 DISTANCE A - B      0.107894
 HEAT              -71.501807
 GRADIENT NORM      15.264480
 DIRECTION COSINE    0.290970
 PM7 XYZ CHARGE=-1


  C    -0.40982837 +1   0.01336446 +1  -0.00159008 +1
 Cl     1.88547406 +1   0.02221617 +1   0.03102722 +1
  H    -0.32831585 +1   1.08582889 +1   0.00154001 +1
  H    -0.31526334 +1  -0.51988062 +1  -0.92949072 +1
  H    -0.32760122 +1  -0.52198396 +1   0.92905035 +1
 Br    -2.66863835 +1   0.00124677 +1  -0.01048017 +1
 
 TIME=     0.01
  REACTANTS AND PRODUCTS SWAPPED AROUND
 *+*+*+*+*+*+*+*+*+*+*+*+*+*+*+*+*+*+*+*+*+*+*+*+*+*+*+*+*+*+*+*+*+*+*+*+*+*+*+*+
            BAR SHORTENED BY       1.000 PERCENT
 GRADIENT CRITERION IN FLEPO =    10.000


          FOR POINT  236 SECOND STRUCTURE
 DISTANCE A - B      0.106815
 HEAT              -71.495680
 GRADIENT NORM      16.485672
 DIRECTION COSINE    0.280400
 PM7 XYZ CHARGE=-1


  C    -0.31969810 +1   0.01379926 +1  -0.00038054 +1
 Cl     1.84676350 +1   0.02086184 +1   0.02986658 +1
  H    -0.33342000 +1   1.08671101 +1   0.00160979 +1
  H    -0.31990054 +1  -0.52023127 +1  -0.93002161 +1
  H    -0.33548076 +1  -0.52261529 +1   0.93333405 +1
 Br    -2.70928872 +1   0.00052769 +1  -0.01006510 +1
 
 TIME=     0.00
  REACTANTS AND PRODUCTS SWAPPED AROUND
 *+*+*+*+*+*+*+*+*+*+*+*+*+*+*+*+*+*+*+*+*+*+*+*+*+*+*+*+*+*+*+*+*+*+*+*+*+*+*+*+
            BAR SHORTENED BY       1.000 PERCENT
 GRADIENT CRITERION IN FLEPO =    10.000


          FOR POINT  237 FIRST  STRUCTURE
 DISTANCE A - B      0.105747
 HEAT              -71.488809
 GRADIENT NORM      15.122848
 DIRECTION COSINE    0.269424
 PM7 XYZ CHARGE=-1


  C    -0.40892707 +1   0.01336881 +1  -0.00157798 +1
 Cl     1.88508695 +1   0.02220262 +1   0.03101561 +1
  H    -0.32836689 +1   1.08583771 +1   0.00154071 +1
  H    -0.31530971 +1  -0.51988413 +1  -0.92949603 +1
  H    -0.32768002 +1  -0.52199028 +1   0.92909318 +1
 Br    -2.66904485 +1   0.00123958 +1  -0.01047602 +1
 
 TIME=     0.01
  REACTANTS AND PRODUCTS SWAPPED AROUND
 *+*+*+*+*+*+*+*+*+*+*+*+*+*+*+*+*+*+*+*+*+*+*+*+*+*+*+*+*+*+*+*+*+*+*+*+*+*+*+*+
            BAR SHORTENED BY       1.000 PERCENT
 GRADIENT CRITERION IN FLEPO =    10.000


          FOR POINT  238 SECOND STRUCTURE
 DISTANCE A - B      0.104690
 HEAT              -71.482246
 GRADIENT NORM      16.305053
 DIRECTION COSINE    0.258776
 PM7 XYZ CHARGE=-1


  C    -0.32059039 +1   0.01379496 +1  -0.00039251 +1
 Cl     1.84714674 +1   0.02087525 +1   0.02987807 +1
  H    -0.33336947 +1   1.08670227 +1   0.00160910 +1
  H    -0.31985464 +1  -0.52022780 +1  -0.93001636 +1
  H    -0.33540275 +1  -0.52260904 +1   0.93329164 +1
 Br    -2.70888629 +1   0.00053481 +1  -0.01006921 +1
 
 TIME=     0.01
  REACTANTS AND PRODUCTS SWAPPED AROUND
 *+*+*+*+*+*+*+*+*+*+*+*+*+*+*+*+*+*+*+*+*+*+*+*+*+*+*+*+*+*+*+*+*+*+*+*+*+*+*+*+
            BAR SHORTENED BY       1.000 PERCENT
 GRADIENT CRITERION IN FLEPO =    10.000


          FOR POINT  239 FIRST  STRUCTURE
 DISTANCE A - B      0.103643
 HEAT              -71.476292
 GRADIENT NORM      14.984330
 DIRECTION COSINE    0.247742
 PM7 XYZ CHARGE=-1


  C    -0.40804370 +1   0.01337307 +1  -0.00156613 +1
 Cl     1.88470755 +1   0.02218935 +1   0.03100424 +1
  H    -0.32841691 +1   1.08584636 +1   0.00154139 +1
  H    -0.31535516 +1  -0.51988756 +1  -0.92950123 +1
  H    -0.32775725 +1  -0.52199646 +1   0.92913517 +1
 Br    -2.66944327 +1   0.00123253 +1  -0.01047195 +1
 
 TIME=     0.01
  REACTANTS AND PRODUCTS SWAPPED AROUND
 *+*+*+*+*+*+*+*+*+*+*+*+*+*+*+*+*+*+*+*+*+*+*+*+*+*+*+*+*+*+*+*+*+*+*+*+*+*+*+*+
            BAR SHORTENED BY       1.000 PERCENT
 GRADIENT CRITERION IN FLEPO =    10.000


          FOR POINT  240 SECOND STRUCTURE
 DISTANCE A - B      0.102606
 HEAT              -71.469337
 GRADIENT NORM      16.129047
 DIRECTION COSINE    0.237026
 PM7 XYZ CHARGE=-1


  C    -0.32146492 +1   0.01379074 +1  -0.00040425 +1
 Cl     1.84752235 +1   0.02088839 +1   0.02988933 +1
  H    -0.33331994 +1   1.08669371 +1   0.00160843 +1
  H    -0.31980964 +1  -0.52022440 +1  -0.93001121 +1
  H    -0.33532629 +1  -0.52260291 +1   0.93325008 +1
 Br    -2.70849186 +1   0.00054179 +1  -0.01007324 +1
 
 TIME=     0.01
  REACTANTS AND PRODUCTS SWAPPED AROUND
 *+*+*+*+*+*+*+*+*+*+*+*+*+*+*+*+*+*+*+*+*+*+*+*+*+*+*+*+*+*+*+*+*+*+*+*+*+*+*+*+
            BAR SHORTENED BY       1.000 PERCENT
 GRADIENT CRITERION IN FLEPO =    10.000


          FOR POINT  241 FIRST  STRUCTURE
 DISTANCE A - B      0.101580
 HEAT              -71.464239
 GRADIENT NORM      14.848924
 DIRECTION COSINE    0.225942
 PM7 XYZ CHARGE=-1


  C    -0.40717791 +1   0.01337725 +1  -0.00155451 +1
 Cl     1.88433570 +1   0.02217634 +1   0.03099309 +1
  H    -0.32846594 +1   1.08585483 +1   0.00154206 +1
  H    -0.31539971 +1  -0.51989093 +1  -0.92950633 +1
  H    -0.32783294 +1  -0.52200253 +1   0.92917632 +1
 Br    -2.66983375 +1   0.00122562 +1  -0.01046797 +1
 
 TIME=     0.01
  REACTANTS AND PRODUCTS SWAPPED AROUND
 *+*+*+*+*+*+*+*+*+*+*+*+*+*+*+*+*+*+*+*+*+*+*+*+*+*+*+*+*+*+*+*+*+*+*+*+*+*+*+*+
            BAR SHORTENED BY       1.000 PERCENT
 GRADIENT CRITERION IN FLEPO =    10.000


          FOR POINT  242 SECOND STRUCTURE
 DISTANCE A - B      0.100565
 HEAT              -71.456934
 GRADIENT NORM      15.957589
 DIRECTION COSINE    0.215166
 PM7 XYZ CHARGE=-1


  C    -0.32232205 +1   0.01378660 +1  -0.00041575 +1
 Cl     1.84789048 +1   0.02090127 +1   0.02990037 +1
  H    -0.33327140 +1   1.08668533 +1   0.00160776 +1
  H    -0.31976554 +1  -0.52022107 +1  -0.93000616 +1
  H    -0.33525136 +1  -0.52259691 +1   0.93320934 +1
 Br    -2.70810527 +1   0.00054863 +1  -0.01007718 +1
 
 TIME=     0.01
  REACTANTS AND PRODUCTS SWAPPED AROUND
 *+*+*+*+*+*+*+*+*+*+*+*+*+*+*+*+*+*+*+*+*+*+*+*+*+*+*+*+*+*+*+*+*+*+*+*+*+*+*+*+
            BAR SHORTENED BY       1.000 PERCENT
 AT END OF STEPWISE ASCENT OF REACTION BARRIER

 -------------------------------------------------------------------------------
 PM7 XYZ CHARGE=-1




     TRANSITION STATE LOCATED USING THE "SADDLE" TECHNIQUE    
     SCF FIELD WAS ACHIEVED                                   


                              PM7 CALCULATION
                                                       MOPAC2016 (Version: 22.066W)
                                                       Tue Apr 12 19:58:11 2022




          FINAL HEAT OF FORMATION =        -71.45693 KCAL/MOL =    -298.97581 KJ/MOL


          COSMO AREA              =        115.11 SQUARE ANGSTROMS
          COSMO VOLUME            =         98.73 CUBIC ANGSTROMS

          GRADIENT NORM           =          9.76897          =       3.98817 PER ATOM
          IONIZATION POTENTIAL    =          5.074987 EV
          HOMO LUMO ENERGIES (EV) =         -5.075  3.744
          NO. OF FILLED LEVELS    =         11
          MOLECULAR WEIGHT        =        130.3917         POINT GROUP:  C3v 

          MOLECULAR DIMENSIONS (Angstroms)

            Atom       Atom       Distance
           Br     6   Cl     2     4.55620
            H     5    H     4     1.86324
            H     4    H     3     1.60809


          SCF CALCULATIONS        =        795
 
          WALL-CLOCK TIME         =          2.172 SECONDS
          COMPUTATION TIME        =          2.156 SECONDS



       FINAL  POINT  AND  DERIVATIVES

   PARAMETER     ATOM    TYPE            VALUE        GRADIENT
      1          1  C    CARTESIAN X    -0.323171     -0.003796  KCAL/ANGSTROM
      2          1  C    CARTESIAN Y     0.013783      0.459371  KCAL/ANGSTROM
      3          1  C    CARTESIAN Z    -0.000427     -2.756297  KCAL/ANGSTROM
      4          2 Cl    CARTESIAN X     1.848255      3.990312  KCAL/ANGSTROM
      5          2 Cl    CARTESIAN Y     0.020914     -0.776822  KCAL/ANGSTROM
      6          2 Cl    CARTESIAN Z     0.029911     -0.372631  KCAL/ANGSTROM
      7          3  H    CARTESIAN X    -0.333223     -0.801344  KCAL/ANGSTROM
      8          3  H    CARTESIAN Y     1.086677     -5.229637  KCAL/ANGSTROM
      9          3  H    CARTESIAN Z     0.001607     -0.536969  KCAL/ANGSTROM
     10          4  H    CARTESIAN X    -0.319722     -1.011275  KCAL/ANGSTROM
     11          4  H    CARTESIAN Y    -0.520218      1.948057  KCAL/ANGSTROM
     12          4  H    CARTESIAN Z    -0.930001      3.371082  KCAL/ANGSTROM
     13          5  H    CARTESIAN X    -0.335177     -1.188736  KCAL/ANGSTROM
     14          5  H    CARTESIAN Y    -0.522591      0.879065  KCAL/ANGSTROM
     15          5  H    CARTESIAN Z     0.933169     -2.221476  KCAL/ANGSTROM
     16          6 Br    CARTESIAN X    -2.707723     -4.392971  KCAL/ANGSTROM
     17          6 Br    CARTESIAN Y     0.000555     -0.148089  KCAL/ANGSTROM
     18          6 Br    CARTESIAN Z    -0.010081      0.239681  KCAL/ANGSTROM




   ATOM   CHEMICAL          X               Y               Z
  NUMBER   SYMBOL      (ANGSTROMS)     (ANGSTROMS)     (ANGSTROMS)
 
     1       C         -0.32317060  *   0.01378251  *  -0.00042714  *
     2      Cl          1.84825494  *   0.02091402  *   0.02991129  *
     3       H         -0.33322335  *   1.08667702  *   0.00160710  *
     4       H         -0.31972188  *  -0.52021776  *  -0.93000116  *
     5       H         -0.33517718  *  -0.52259097  *   0.93316901  *
     6      Br         -2.70772255  *   0.00055540  *  -0.01008109  *

                             CARTESIAN COORDINATES

   1    C       -0.323170598     0.013782510    -0.000427141
   2   Cl        1.848254945     0.020914020     0.029911294
   3    H       -0.333223346     1.086677021     0.001607105
   4    H       -0.319721882    -0.520217764    -0.930001160
   5    H       -0.335177176    -0.522590966     0.933169010
   6   Br       -2.707722547     0.000555395    -0.010081091


           Empirical Formula: C H3 Cl Br  =     6 atoms



      MOLECULAR POINT GROUP   :   C3v 


                  EIGENVALUES  
 -22.55540 -21.05747 -19.61093 -11.24751 -11.22009  -7.99760  -6.39162  -6.39075
  -5.57772  -5.57698  -5.07499   3.74427   9.25020   9.36140   9.37863  79.52163
  79.64997  79.65084  80.22879  80.22881 280.39650 280.41857 280.41874 280.85512
 280.85517


              NET ATOMIC CHARGES AND DIPOLE CONTRIBUTIONS

  ATOM NO.   TYPE          CHARGE      No. of ELECS.   s-Pop       p-Pop       d-Pop       
    1          C           0.026207        3.9738     1.18131     2.79248
    2         Cl          -0.717179        7.7172     1.99570     5.71825     0.00323
    3          H           0.146935        0.8531     0.85307
    4          H           0.146993        0.8530     0.85301
    5          H           0.148479        0.8515     0.85152
    6         Br          -0.751435        7.7514     1.99468     5.75514     0.00161
 DIPOLE           X         Y         Z       TOTAL
 POINT-CHG.    -3.070    -0.009    -0.047     3.071
 HYBRID        -0.034     0.003    -0.003     0.034
 SUM           -3.104    -0.006    -0.050     3.105


          ATOMIC ORBITAL ELECTRON POPULATIONS

     Atom    s        px        py        pz      x^2-y^2     xz        z^2       yz        xy
    1  C   1.18131   0.53468   1.12921   1.12859
    2 Cl   1.99570   1.71835   1.99998   1.99992   0.00167   0.00050   0.00056   0.00001   0.00050
    3  H   0.85307
    4  H   0.85301
    5  H   0.85152
    6 Br   1.99468   1.75522   1.99996   1.99996   0.00078   0.00028   0.00026   0.00000   0.00028

 **********************
 *                    *
 * JOB ENDED NORMALLY *
 *                    *
 **********************



 TOTAL JOB TIME:             2.18 SECONDS

 == MOPAC DONE ==
