 *******************************************************************************
 ** Cite this program as: MOPAC2016, Version: 22.067 , James J. P. Stewart,   **
 **                           web-site: HTTP://OpenMOPAC.net.                 **
 *******************************************************************************
 **                                                                           **
 **                                MOPAC2016                                  **
 **                                                                           **
 *******************************************************************************

                              AM1 CALCULATION RESULTS

 *******************************************************************************
 *  CALCULATION DONE:                                Wed Jun  8 09:56:42 2022  *
 *  AM1        - The AM1 Hamiltonian to be used
 *
 *
 *
 *                 CHARGE ON SYSTEM = 0
 *
 *
 *
 *  T=         - A TIME OF 172800.0 SECONDS REQUESTED
 *  DUMP=N     - RESTART FILE WRITTEN EVERY 7200.0 SECONDS REQUESTED
 *  PRTCHARGE  - PRINT CHARGES IN ARC FILE
 *******************************************************************************
AM1 CHARGE=0 PRTCHAR


   ATOM   CHEMICAL          X               Y               Z
  NUMBER   SYMBOL      (ANGSTROMS)     (ANGSTROMS)     (ANGSTROMS)
 
     1       C         11.33991000      70.55567000      0.70903000   
     2       C         37.47799000      40.17373000     36.51017000   
     3       C         37.47799000      40.17373000      0.70903000   
     4       C         11.33991000      70.55567000     36.51017000   
     5       C         13.06904000      15.19097000     36.51017000   
     6       C         35.74886000      95.53843000      0.70903000   
     7       C         35.74886000      95.53843000     36.51017000   
     8       C         13.06904000      15.19097000      0.70903000   
     9       C         35.74886000      15.19097000     19.31863000   
    10       C         13.06904000      95.53843000     17.90057000   
    11       C         13.06904000      95.53843000     19.31863000   
    12       C         35.74886000      15.19097000     17.90057000   
    13       C         37.47799000      70.55567000     17.90057000   
    14       C         11.33991000      40.17373000     19.31863000   
    15       C         11.33991000      40.17373000     17.90057000   
    16       C         37.47799000      70.55567000     19.31863000   
    17       C         13.67389000      71.19790000      0.71051000   
    18       C         35.14401000      39.53150000     36.50869000   
    19       C         35.14401000      39.53150000      0.71051000   
    20       C         13.67389000      71.19790000     36.50869000   
    21       C         10.73506000      15.83320000     36.50869000   
    22       C         38.08284000      94.89620000      0.71051000   
    23       C         38.08284000      94.89620000     36.50869000   
    24       C         10.73506000      15.83320000      0.71051000   
    25       C         38.08284000      15.83320000     19.32011000   
    26       C         10.73506000      94.89620000     17.89909000   
    27       C         10.73506000      94.89620000     19.32011000   
    28       C         38.08284000      15.83320000     17.89909000   
    29       C         35.14401000      71.19790000     17.89909000   
    30       C         13.67389000      39.53150000     19.32011000   
    31       C         13.67389000      39.53150000     17.89909000   
    32       C         35.14401000      71.19790000     19.32011000   
    33       C         12.50373000      70.85796000      1.41321000   
    34       C         36.31417000      39.87144000     35.80599000   
    35       C         36.31417000      39.87144000      1.41321000   
    36       C         12.50373000      70.85796000     35.80599000   
    37       C         11.90522000      15.49326000     35.80599000   
    38       C         36.91268000      95.23614000      1.41321000   
    39       C         36.91268000      95.23614000     35.80599000   
    40       C         11.90522000      15.49326000      1.41321000   
    41       C         36.91268000      15.49326000     20.02281000   
    42       C         11.90522000      95.23614000     17.19639000   
    43       C         11.90522000      95.23614000     20.02281000   
    44       C         36.91268000      15.49326000     17.19639000   
    45       C         36.31417000      70.85796000     17.19639000   
    46       C         12.50373000      39.87144000     20.02281000   
    47       C         12.50373000      39.87144000     17.19639000   
    48       C         36.31417000      70.85796000     20.02281000   
    49       C         14.80354000      71.76705000      1.47053000   
    50       C         34.01436000      38.96235000     35.74867000   
    51       C         34.01436000      38.96235000      1.47053000   
    52       C         14.80354000      71.76705000     35.74867000   
    53       C          9.60541000      16.40235000     35.74867000   
    54       C         39.21249000      94.32705000      1.47053000   
    55       C         39.21249000      94.32705000     35.74867000   
    56       C          9.60541000      16.40235000      1.47053000   
    57       C         39.21249000      16.40235000     20.08013000   
    58       C          9.60541000      94.32705000     17.13907000   
    59       C          9.60541000      94.32705000     20.08013000   
    60       C         39.21249000      16.40235000     17.13907000   
    61       C         34.01436000      71.76705000     17.13907000   
    62       C         14.80354000      38.96235000     20.08013000   
    63       C         14.80354000      38.96235000     17.13907000   
    64       C         34.01436000      71.76705000     20.08013000   
    65       C         16.94811000      72.90977000      2.89156000   
    66       C         31.86979000      37.81963000     34.32764000   
    67       C         31.86979000      37.81963000      2.89156000   
    68       C         16.94811000      72.90977000     34.32764000   
    69       C          7.46084000      17.54507000     34.32764000   
    70       C         41.35706000      93.18433000      2.89156000   
    71       C         41.35706000      93.18433000     34.32764000   
    72       C          7.46084000      17.54507000      2.89156000   
    73       C         41.35706000      17.54507000     21.50116000   
    74       C          7.46084000      93.18433000     15.71804000   
    75       C          7.46084000      93.18433000     21.50116000   
    76       C         41.35706000      17.54507000     15.71804000   
    77       C         31.86979000      72.90977000     15.71804000   
    78       C         16.94811000      37.81963000     21.50116000   
    79       C         16.94811000      37.81963000     15.71804000   
    80       C         31.86979000      72.90977000     21.50116000   
    81       C         18.07922000      73.50328000      3.63557000   
    82       C         30.73868000      37.22612000     33.58363000   
    83       C         30.73868000      37.22612000      3.63557000   
    84       C         18.07922000      73.50328000     33.58363000   
    85       C          6.32973000      18.13858000     33.58363000   
    86       C         42.48817000      92.59082000      3.63557000   
    87       C         42.48817000      92.59082000     33.58363000   
    88       C          6.32973000      18.13858000      3.63557000   
    89       C         42.48817000      18.13858000     22.24517000   
    90       C          6.32973000      92.59082000     14.97403000   
    91       C          6.32973000      92.59082000     22.24517000   
    92       C         42.48817000      18.13858000     14.97403000   
    93       C         30.73868000      73.50328000     14.97403000   
    94       C         18.07922000      37.22612000     22.24517000   
    95       C         18.07922000      37.22612000     14.97403000   
    96       C         30.73868000      73.50328000     22.24517000   
    97       C         23.44480000      79.58454000      8.56116000   
    98       C         25.37310000      31.14486000     28.65804000   
    99       C         25.37310000      31.14486000      8.56116000   
   100       C         23.44480000      79.58454000     28.65804000   
   101       C          0.96415000      24.21984000     28.65804000   
   102       C         47.85375000      86.50956000      8.56116000   
   103       C         47.85375000      86.50956000     28.65804000   
   104       C          0.96415000      24.21984000      8.56116000   
   105       C         47.85375000      24.21984000     27.17076000   
   106       C          0.96415000      86.50956000     10.04844000   
   107       C          0.96415000      86.50956000     27.17076000   
   108       C         47.85375000      24.21984000     10.04844000   
   109       C         25.37310000      79.58454000     10.04844000   
   110       C         23.44480000      31.14486000     27.17076000   
   111       C         23.44480000      31.14486000     10.04844000   
   112       C         25.37310000      79.58454000     27.17076000   
   113       C          0.84992000      56.32915000      8.44578000   
   114       C         47.96798000      54.40025000     28.77342000   
   115       C         47.96798000      54.40025000      8.44578000   
   116       C          0.84992000      56.32915000     28.77342000   
   117       C         23.55903000       0.96445000     28.77342000   
   118       C         25.25887000     109.76495000      8.44578000   
   119       C         25.25887000     109.76495000     28.77342000   
   120       C         23.55903000       0.96445000      8.44578000   
   121       C         25.25887000       0.96445000     27.05538000   
   122       C         23.55903000     109.76495000     10.16382000   
   123       C         23.55903000     109.76495000     27.05538000   
   124       C         25.25887000       0.96445000     10.16382000   
   125       C         47.96798000      56.32915000     10.16382000   
   126       C          0.84992000      54.40025000     27.05538000   
   127       C          0.84992000      54.40025000     10.16382000   
   128       C         47.96798000      56.32915000     27.05538000   
   129       C          2.27980000      58.29460000      6.97786000   
   130       C         46.53810000      52.43480000     30.24134000   
   131       C         46.53810000      52.43480000      6.97786000   
   132       C          2.27980000      58.29460000     30.24134000   
   133       C         22.12915000       2.92990000     30.24134000   
   134       C         26.68875000     107.79950000      6.97786000   
   135       C         26.68875000     107.79950000     30.24134000   
   136       C         22.12915000       2.92990000      6.97786000   
   137       C         26.68875000       2.92990000     25.58746000   
   138       C         22.12915000     107.79950000     11.63174000   
   139       C         22.12915000     107.79950000     25.58746000   
   140       C         26.68875000       2.92990000     11.63174000   
   141       C         46.53810000      58.29460000     11.63174000   
   142       C          2.27980000      52.43480000     25.58746000   
   143       C          2.27980000      52.43480000     11.63174000   
   144       C         46.53810000      58.29460000     25.58746000   
   145       C          3.01743000      59.32881000      6.21077000   
   146       C         45.80047000      51.40059000     31.00843000   
   147       C         45.80047000      51.40059000      6.21077000   
   148       C          3.01743000      59.32881000     31.00843000   
   149       C         21.39152000       3.96411000     31.00843000   
   150       C         27.42638000     106.76529000      6.21077000   
   151       C         27.42638000     106.76529000     31.00843000   
   152       C         21.39152000       3.96411000      6.21077000   
   153       C         27.42638000       3.96411000     24.82037000   
   154       C         21.39152000     106.76529000     12.39883000   
   155       C         21.39152000     106.76529000     24.82037000   
   156       C         27.42638000       3.96411000     12.39883000   
   157       C         45.80047000      59.32881000     12.39883000   
   158       C          3.01743000      51.40059000     24.82037000   
   159       C          3.01743000      51.40059000     12.39883000   
   160       C         45.80047000      59.32881000     24.82037000   
   161       C          4.75486000      63.51106000      3.74686000   
   162       C         44.06304000      47.21834000     33.47234000   
   163       C         44.06304000      47.21834000      3.74686000   
   164       C          4.75486000      63.51106000     33.47234000   
   165       C         19.65409000       8.14636000     33.47234000   
   166       C         29.16381000     102.58304000      3.74686000   
   167       C         29.16381000     102.58304000     33.47234000   
   168       C         19.65409000       8.14636000      3.74686000   
   169       C         29.16381000       8.14636000     22.35646000   
   170       C         19.65409000     102.58304000     14.86274000   
   171       C         19.65409000     102.58304000     22.35646000   
   172       C         29.16381000       8.14636000     14.86274000   
   173       C         44.06304000      63.51106000     14.86274000   
   174       C          4.75486000      47.21834000     22.35646000   
   175       C          4.75486000      47.21834000     14.86274000   
   176       C         44.06304000      63.51106000     22.35646000   
   177       C          5.60039000      64.43012000      2.95855000   
   178       C         43.21751000      46.29928000     34.26065000   
   179       C         43.21751000      46.29928000      2.95855000   
   180       C          5.60039000      64.43012000     34.26065000   
   181       C         18.80856000       9.06542000     34.26065000   
   182       C         30.00934000     101.66398000      2.95855000   
   183       C         30.00934000     101.66398000     34.26065000   
   184       C         18.80856000       9.06542000      2.95855000   
   185       C         30.00934000       9.06542000     21.56815000   
   186       C         18.80856000     101.66398000     15.65105000   
   187       C         18.80856000     101.66398000     21.56815000   
   188       C         30.00934000       9.06542000     15.65105000   
   189       C         43.21751000      64.43012000     15.65105000   
   190       C          5.60039000      46.29928000     21.56815000   
   191       C          5.60039000      46.29928000     15.65105000   
   192       C         43.21751000      64.43012000     21.56815000   
   193       C          7.17086000      66.23279000      1.47537000   
   194       C         41.64704000      44.49661000     35.74383000   
   195       C         41.64704000      44.49661000      1.47537000   
   196       C          7.17086000      66.23279000     35.74383000   
   197       C         17.23809000      10.86809000     35.74383000   
   198       C         31.57981000      99.86131000      1.47537000   
   199       C         31.57981000      99.86131000     35.74383000   
   200       C         17.23809000      10.86809000      1.47537000   
   201       C         31.57981000      10.86809000     20.08497000   
   202       C         17.23809000      99.86131000     17.13423000   
   203       C         17.23809000      99.86131000     20.08497000   
   204       C         31.57981000      10.86809000     17.13423000   
   205       C         41.64704000      66.23279000     17.13423000   
   206       C          7.17086000      44.49661000     20.08497000   
   207       C          7.17086000      44.49661000     17.13423000   
   208       C         41.64704000      66.23279000     20.08497000   
   209       C          8.66322000      68.20820000      1.41359000   
   210       C         40.15468000      42.52120000     35.80561000   
   211       C         40.15468000      42.52120000      1.41359000   
   212       C          8.66322000      68.20820000     35.80561000   
   213       C         15.74573000      12.84350000     35.80561000   
   214       C         33.07217000      97.88590000      1.41359000   
   215       C         33.07217000      97.88590000     35.80561000   
   216       C         15.74573000      12.84350000      1.41359000   
   217       C         33.07217000      12.84350000     20.02319000   
   218       C         15.74573000      97.88590000     17.19601000   
   219       C         15.74573000      97.88590000     20.02319000   
   220       C         33.07217000      12.84350000     17.19601000   
   221       C         40.15468000      68.20820000     17.19601000   
   222       C          8.66322000      42.52120000     20.02319000   
   223       C          8.66322000      42.52120000     17.19601000   
   224       C         40.15468000      68.20820000     20.02319000   
   225       C          7.98710000      67.19503000      0.71014000   
   226       C         40.83080000      43.53437000     36.50906000   
   227       C         40.83080000      43.53437000      0.71014000   
   228       C          7.98710000      67.19503000     36.50906000   
   229       C         16.42185000      11.83033000     36.50906000   
   230       C         32.39605000      98.89907000      0.71014000   
   231       C         32.39605000      98.89907000     36.50906000   
   232       C         16.42185000      11.83033000      0.71014000   
   233       C         32.39605000      11.83033000     19.31974000   
   234       C         16.42185000      98.89907000     17.89946000   
   235       C         16.42185000      98.89907000     19.31974000   
   236       C         32.39605000      11.83033000     17.89946000   
   237       C         40.83080000      67.19503000     17.89946000   
   238       C          7.98710000      43.53437000     19.31974000   
   239       C          7.98710000      43.53437000     17.89946000   
   240       C         40.83080000      67.19503000     19.31974000   
   241       C          9.31787000      69.21584000      0.70791000   
   242       C         39.50003000      41.51356000     36.51129000   
   243       C         39.50003000      41.51356000      0.70791000   
   244       C          9.31787000      69.21584000     36.51129000   
   245       C         15.09108000      13.85114000     36.51129000   
   246       C         33.72682000      96.87826000      0.70791000   
   247       C         33.72682000      96.87826000     36.51129000   
   248       C         15.09108000      13.85114000      0.70791000   
   249       C         33.72682000      13.85114000     19.31751000   
   250       C         15.09108000      96.87826000     17.90169000   
   251       C         15.09108000      96.87826000     19.31751000   
   252       C         33.72682000      13.85114000     17.90169000   
   253       C         39.50003000      69.21584000     17.90169000   
   254       C          9.31787000      41.51356000     19.31751000   
   255       C          9.31787000      41.51356000     17.90169000   
   256       C         39.50003000      69.21584000     19.31751000   
   257       C          9.18704000      71.62310000      0.70940000   
   258       C         39.63086000      39.10630000     36.50980000   
   259       C         39.63086000      39.10630000      0.70940000   
   260       C          9.18704000      71.62310000     36.50980000   
   261       C         15.22191000      16.25840000     36.50980000   
   262       C         33.59599000      94.47100000      0.70940000   
   263       C         33.59599000      94.47100000     36.50980000   
   264       C         15.22191000      16.25840000      0.70940000   
   265       C         33.59599000      16.25840000     19.31900000   
   266       C         15.22191000      94.47100000     17.90020000   
   267       C         15.22191000      94.47100000     19.31900000   
   268       C         33.59599000      16.25840000     17.90020000   
   269       C         39.63086000      71.62310000     17.90020000   
   270       C          9.18704000      39.10630000     19.31900000   
   271       C          9.18704000      39.10630000     17.90020000   
   272       C         39.63086000      71.62310000     19.31900000   
   273       C          8.59976000      72.67171000      1.41545000   
   274       C         40.21814000      38.05769000     35.80375000   
   275       C         40.21814000      38.05769000      1.41545000   
   276       C          8.59976000      72.67171000     35.80375000   
   277       C         15.80919000      17.30701000     35.80375000   
   278       C         33.00871000      93.42239000      1.41545000   
   279       C         33.00871000      93.42239000     35.80375000   
   280       C         15.80919000      17.30701000      1.41545000   
   281       C         33.00871000      17.30701000     20.02505000   
   282       C         15.80919000      93.42239000     17.19415000   
   283       C         15.80919000      93.42239000     20.02505000   
   284       C         33.00871000      17.30701000     17.19415000   
   285       C         40.21814000      72.67171000     17.19415000   
   286       C          8.59976000      38.05769000     20.02505000   
   287       C          8.59976000      38.05769000     17.19415000   
   288       C         40.21814000      72.67171000     20.02505000   
   289       C          8.01053000      73.73471000      0.70977000   
   290       C         40.80737000      36.99469000     36.50943000   
   291       C         40.80737000      36.99469000      0.70977000   
   292       C          8.01053000      73.73471000     36.50943000   
   293       C         16.39842000      18.37001000     36.50943000   
   294       C         32.41948000      92.35939000      0.70977000   
   295       C         32.41948000      92.35939000     36.50943000   
   296       C         16.39842000      18.37001000      0.70977000   
   297       C         32.41948000      18.37001000     19.31937000   
   298       C         16.39842000      92.35939000     17.89983000   
   299       C         16.39842000      92.35939000     19.31937000   
   300       C         32.41948000      18.37001000     17.89983000   
   301       C         40.80737000      73.73471000     17.89983000   
   302       C          8.01053000      36.99469000     19.31937000   
   303       C          8.01053000      36.99469000     17.89983000   
   304       C         40.80737000      73.73471000     19.31937000   
   305       C          7.48330000      74.88408000      1.46569000   
   306       C         41.33460000      35.84532000     35.75351000   
   307       C         41.33460000      35.84532000      1.46569000   
   308       C          7.48330000      74.88408000     35.75351000   
   309       C         16.92565000      19.51938000     35.75351000   
   310       C         31.89225000      91.21002000      1.46569000   
   311       C         31.89225000      91.21002000     35.75351000   
   312       C         16.92565000      19.51938000      1.46569000   
   313       C         31.89225000      19.51938000     20.07529000   
   314       C         16.92565000      91.21002000     17.14391000   
   315       C         16.92565000      91.21002000     20.07529000   
   316       C         31.89225000      19.51938000     17.14391000   
   317       C         41.33460000      74.88408000     17.14391000   
   318       C          7.48330000      35.84532000     20.07529000   
   319       C          7.48330000      35.84532000     17.14391000   
   320       C         41.33460000      74.88408000     20.07529000   
   321       C          6.48692000      77.12967000      2.83387000   
   322       C         42.33098000      33.59973000     34.38533000   
   323       C         42.33098000      33.59973000      2.83387000   
   324       C          6.48692000      77.12967000     34.38533000   
   325       C         17.92203000      21.76497000     34.38533000   
   326       C         30.89587000      88.96443000      2.83387000   
   327       C         30.89587000      88.96443000     34.38533000   
   328       C         17.92203000      21.76497000      2.83387000   
   329       C         30.89587000      21.76497000     21.44347000   
   330       C         17.92203000      88.96443000     15.77573000   
   331       C         17.92203000      88.96443000     21.44347000   
   332       C         30.89587000      21.76497000     15.77573000   
   333       C         42.33098000      77.12967000     15.77573000   
   334       C          6.48692000      33.59973000     21.44347000   
   335       C          6.48692000      33.59973000     15.77573000   
   336       C         42.33098000      77.12967000     21.44347000   
   337       C          5.99191000      78.31890000      3.55629000   
   338       C         42.82599000      32.41050000     33.66291000   
   339       C         42.82599000      32.41050000      3.55629000   
   340       C          5.99191000      78.31890000     33.66291000   
   341       C         18.41704000      22.95420000     33.66291000   
   342       C         30.40086000      87.77520000      3.55629000   
   343       C         30.40086000      87.77520000     33.66291000   
   344       C         18.41704000      22.95420000      3.55629000   
   345       C         30.40086000      22.95420000     22.16589000   
   346       C         18.41704000      87.77520000     15.05331000   
   347       C         18.41704000      87.77520000     22.16589000   
   348       C         30.40086000      22.95420000     15.05331000   
   349       C         42.82599000      78.31890000     15.05331000   
   350       C          5.99191000      32.41050000     22.16589000   
   351       C          5.99191000      32.41050000     15.05331000   
   352       C         42.82599000      78.31890000     22.16589000   
   353       C          4.10851000      79.55686000      4.51729000   
   354       C         44.70939000      31.17254000     32.70191000   
   355       C         44.70939000      31.17254000      4.51729000   
   356       C          4.10851000      79.55686000     32.70191000   
   357       C         20.30044000      24.19216000     32.70191000   
   358       C         28.51746000      86.53724000      4.51729000   
   359       C         28.51746000      86.53724000     32.70191000   
   360       C         20.30044000      24.19216000      4.51729000   
   361       C         28.51746000      24.19216000     23.12689000   
   362       C         20.30044000      86.53724000     14.09231000   
   363       C         20.30044000      86.53724000     23.12689000   
   364       C         28.51746000      24.19216000     14.09231000   
   365       C         44.70939000      79.55686000     14.09231000   
   366       C          4.10851000      31.17254000     23.12689000   
   367       C          4.10851000      31.17254000     14.09231000   
   368       C         44.70939000      79.55686000     23.12689000   
   369       C          2.73039000      81.58653000      5.95619000   
   370       C         46.08751000      29.14287000     31.26301000   
   371       C         46.08751000      29.14287000      5.95619000   
   372       C          2.73039000      81.58653000     31.26301000   
   373       C         21.67856000      26.22183000     31.26301000   
   374       C         27.13934000      84.50757000      5.95619000   
   375       C         27.13934000      84.50757000     31.26301000   
   376       C         21.67856000      26.22183000      5.95619000   
   377       C         27.13934000      26.22183000     24.56579000   
   378       C         21.67856000      84.50757000     12.65341000   
   379       C         21.67856000      84.50757000     24.56579000   
   380       C         27.13934000      26.22183000     12.65341000   
   381       C         46.08751000      81.58653000     12.65341000   
   382       C          2.73039000      29.14287000     24.56579000   
   383       C          2.73039000      29.14287000     12.65341000   
   384       C         46.08751000      81.58653000     24.56579000   
   385       C          2.03961000      82.61299000      6.77241000   
   386       C         46.77829000      28.11641000     30.44679000   
   387       C         46.77829000      28.11641000      6.77241000   
   388       C          2.03961000      82.61299000     30.44679000   
   389       C         22.36934000      27.24829000     30.44679000   
   390       C         26.44856000      83.48111000      6.77241000   
   391       C         26.44856000      83.48111000     30.44679000   
   392       C         22.36934000      27.24829000      6.77241000   
   393       C         26.44856000      27.24829000     25.38201000   
   394       C         22.36934000      83.48111000     11.83719000   
   395       C         22.36934000      83.48111000     25.38201000   
   396       C         26.44856000      27.24829000     11.83719000   
   397       C         46.77829000      82.61299000     11.83719000   
   398       C          2.03961000      28.11641000     25.38201000   
   399       C          2.03961000      28.11641000     11.83719000   
   400       C         46.77829000      82.61299000     25.38201000   
   401       C          0.74935000      84.58619000      8.35608000   
   402       C         48.06855000      26.14321000     28.86312000   
   403       C         48.06855000      26.14321000      8.35608000   
   404       C          0.74935000      84.58619000     28.86312000   
   405       C         23.65960000      29.22149000     28.86312000   
   406       C         25.15830000      81.50791000      8.35608000   
   407       C         25.15830000      81.50791000     28.86312000   
   408       C         23.65960000      29.22149000      8.35608000   
   409       C         25.15830000      29.22149000     26.96568000   
   410       C         23.65960000      81.50791000     10.25352000   
   411       C         23.65960000      81.50791000     26.96568000   
   412       C         25.15830000      29.22149000     10.25352000   
   413       C         48.06855000      84.58619000     10.25352000   
   414       C          0.74935000      26.14321000     26.96568000   
   415       C          0.74935000      26.14321000     10.25352000   
   416       C         48.06855000      84.58619000     26.96568000   
   417       C          9.94958000      70.45601000      1.33505000   
   418       C         38.86832000      40.27339000     35.88415000   
   419       C         38.86832000      40.27339000      1.33505000   
   420       C          9.94958000      70.45601000     35.88415000   
   421       C         14.45937000      15.09131000     35.88415000   
   422       C         34.35853000      95.63809000      1.33505000   
   423       C         34.35853000      95.63809000     35.88415000   
   424       C         14.45937000      15.09131000      1.33505000   
   425       C         34.35853000      15.09131000     19.94465000   
   426       C         14.45937000      95.63809000     17.27455000   
   427       C         14.45937000      95.63809000     19.94465000   
   428       C         34.35853000      15.09131000     17.27455000   
   429       C         38.86832000      70.45601000     17.27455000   
   430       C          9.94958000      40.27339000     19.94465000   
   431       C          9.94958000      40.27339000     17.27455000   
   432       C         38.86832000      70.45601000     19.94465000   
   433       C         19.24695000      10.38088000      2.74492000   
   434       C         29.57095000     100.34852000     34.47428000   
   435       C         29.57095000     100.34852000      2.74492000   
   436       C         19.24695000      10.38088000     34.47428000   
   437       C          5.16200000      65.74558000     34.47428000   
   438       C         43.65590000      44.98382000      2.74492000   
   439       C         43.65590000      44.98382000     34.47428000   
   440       C          5.16200000      65.74558000      2.74492000   
   441       C         43.65590000      65.74558000     21.35452000   
   442       C          5.16200000      44.98382000     15.86468000   
   443       C          5.16200000      44.98382000     21.35452000   
   444       C         43.65590000      65.74558000     15.86468000   
   445       C         29.57095000      10.38088000     15.86468000   
   446       C         19.24695000     100.34852000     21.35452000   
   447       C         19.24695000     100.34852000     15.86468000   
   448       C         29.57095000      10.38088000     21.35452000   
   449       C         18.46586000      11.27668000      2.01133000   
   450       C         30.35204000      99.45272000     35.20787000   
   451       C         30.35204000      99.45272000      2.01133000   
   452       C         18.46586000      11.27668000     35.20787000   
   453       C          5.94309000      66.64138000     35.20787000   
   454       C         42.87481000      44.08802000      2.01133000   
   455       C         42.87481000      44.08802000     35.20787000   
   456       C          5.94309000      66.64138000      2.01133000   
   457       C         42.87481000      66.64138000     20.62093000   
   458       C          5.94309000      44.08802000     16.59827000   
   459       C          5.94309000      44.08802000     20.62093000   
   460       C         42.87481000      66.64138000     16.59827000   
   461       C         30.35204000      11.27668000     16.59827000   
   462       C         18.46586000      99.45272000     20.62093000   
   463       C         18.46586000      99.45272000     16.59827000   
   464       C         30.35204000      11.27668000     20.62093000   
   465       C         16.79336000       9.55595000      1.68380000   
   466       C         32.02454000     101.17345000     35.53540000   
   467       C         32.02454000     101.17345000      1.68380000   
   468       C         16.79336000       9.55595000     35.53540000   
   469       C          7.61559000      64.92065000     35.53540000   
   470       C         41.20231000      45.80875000      1.68380000   
   471       C         41.20231000      45.80875000     35.53540000   
   472       C          7.61559000      64.92065000      1.68380000   
   473       C         41.20231000      64.92065000     20.29340000   
   474       C          7.61559000      45.80875000     16.92580000   
   475       C          7.61559000      45.80875000     20.29340000   
   476       C         41.20231000      64.92065000     16.92580000   
   477       C         32.02454000       9.55595000     16.92580000   
   478       C         16.79336000     101.17345000     20.29340000   
   479       C         16.79336000     101.17345000     16.92580000   
   480       C         32.02454000       9.55595000     20.29340000   
   481       C         17.57396000       8.65682000      2.41925000   
   482       C         31.24394000     102.07258000     34.79995000   
   483       C         31.24394000     102.07258000      2.41925000   
   484       C         17.57396000       8.65682000     34.79995000   
   485       C          6.83499000      64.02152000     34.79995000   
   486       C         41.98291000      46.70788000      2.41925000   
   487       C         41.98291000      46.70788000     34.79995000   
   488       C          6.83499000      64.02152000      2.41925000   
   489       C         41.98291000      64.02152000     21.02885000   
   490       C          6.83499000      46.70788000     16.19035000   
   491       C          6.83499000      46.70788000     21.02885000   
   492       C         41.98291000      64.02152000     16.19035000   
   493       C         31.24394000       8.65682000     16.19035000   
   494       C         17.57396000     102.07258000     21.02885000   
   495       C         17.57396000     102.07258000     16.19035000   
   496       C         31.24394000       8.65682000     21.02885000   
   497       C          7.35442000      16.24511000      2.36900000   
   498       C         41.46348000      94.48429000     34.85020000   
   499       C         41.46348000      94.48429000      2.36900000   
   500       C          7.35442000      16.24511000     34.85020000   
   501       C         17.05453000      71.60981000     34.85020000   
   502       C         31.76337000      39.11959000      2.36900000   
   503       C         31.76337000      39.11959000     34.85020000   
   504       C         17.05453000      71.60981000      2.36900000   
   505       C         31.76337000      71.60981000     20.97860000   
   506       C         17.05453000      39.11959000     16.24060000   
   507       C         17.05453000      39.11959000     20.97860000   
   508       C         31.76337000      71.60981000     16.24060000   
   509       C         41.46348000      16.24511000     16.24060000   
   510       C          7.35442000      94.48429000     20.97860000   
   511       C          7.35442000      94.48429000     16.24060000   
   512       C         41.46348000      16.24511000     20.97860000   
   513       C          8.42206000      15.67596000      1.66407000   
   514       C         40.39584000      95.05344000     35.55513000   
   515       C         40.39584000      95.05344000      1.66407000   
   516       C          8.42206000      15.67596000     35.55513000   
   517       C         15.98689000      71.04066000     35.55513000   
   518       C         32.83101000      39.68874000      1.66407000   
   519       C         32.83101000      39.68874000     35.55513000   
   520       C         15.98689000      71.04066000      1.66407000   
   521       C         32.83101000      71.04066000     20.27367000   
   522       C         15.98689000      39.68874000     16.94553000   
   523       C         15.98689000      39.68874000     20.27367000   
   524       C         32.83101000      71.04066000     16.94553000   
   525       C         40.39584000      15.67596000     16.94553000   
   526       C          8.42206000      95.05344000     20.27367000   
   527       C          8.42206000      95.05344000     16.94553000   
   528       C         40.39584000      15.67596000     20.27367000   
   529       C          9.71671000      17.69567000      1.99569000   
   530       C         39.10119000      93.03373000     35.22351000   
   531       C         39.10119000      93.03373000      1.99569000   
   532       C          9.71671000      17.69567000     35.22351000   
   533       C         14.69224000      73.06037000     35.22351000   
   534       C         34.12566000      37.66903000      1.99569000   
   535       C         34.12566000      37.66903000     35.22351000   
   536       C         14.69224000      73.06037000      1.99569000   
   537       C         34.12566000      73.06037000     20.60529000   
   538       C         14.69224000      37.66903000     16.61391000   
   539       C         14.69224000      37.66903000     20.60529000   
   540       C         34.12566000      73.06037000     16.61391000   
   541       C         39.10119000      17.69567000     16.61391000   
   542       C          9.71671000      93.03373000     20.60529000   
   543       C          9.71671000      93.03373000     16.61391000   
   544       C         39.10119000      17.69567000     20.60529000   
   545       C          8.65493000      18.26481000      2.69876000   
   546       C         40.16297000      92.46459000     34.52044000   
   547       C         40.16297000      92.46459000      2.69876000   
   548       C          8.65493000      18.26481000     34.52044000   
   549       C         15.75402000      73.62951000     34.52044000   
   550       C         33.06388000      37.09989000      2.69876000   
   551       C         33.06388000      37.09989000     34.52044000   
   552       C         15.75402000      73.62951000      2.69876000   
   553       C         33.06388000      73.62951000     21.30836000   
   554       C         15.75402000      37.09989000     15.91084000   
   555       C         15.75402000      37.09989000     21.30836000   
   556       C         33.06388000      73.62951000     15.91084000   
   557       C         40.16297000      18.26481000     15.91084000   
   558       C          8.65493000      92.46459000     21.30836000   
   559       C          8.65493000      92.46459000     15.91084000   
   560       C         40.16297000      18.26481000     21.30836000   
   561       C          0.50380000      23.47574000      7.45240000   
   562       C         48.31410000      87.25366000     29.76680000   
   563       C         48.31410000      87.25366000      7.45240000   
   564       C          0.50380000      23.47574000     29.76680000   
   565       C         23.90515000      78.84044000     29.76680000   
   566       C         24.91275000      31.88896000      7.45240000   
   567       C         24.91275000      31.88896000     29.76680000   
   568       C         23.90515000      78.84044000      7.45240000   
   569       C         24.91275000      78.84044000     26.06200000   
   570       C         23.90515000      31.88896000     11.15720000   
   571       C         23.90515000      31.88896000     26.06200000   
   572       C         24.91275000      78.84044000     11.15720000   
   573       C         48.31410000      23.47574000     11.15720000   
   574       C          0.50380000      87.25366000     26.06200000   
   575       C          0.50380000      87.25366000     11.15720000   
   576       C         48.31410000      23.47574000     26.06200000   
   577       C          1.36251000      22.62534000      6.74933000   
   578       C         47.45539000      88.10406000     30.46987000   
   579       C         47.45539000      88.10406000      6.74933000   
   580       C          1.36251000      22.62534000     30.46987000   
   581       C         23.04644000      77.99004000     30.46987000   
   582       C         25.77146000      32.73936000      6.74933000   
   583       C         25.77146000      32.73936000     30.46987000   
   584       C         23.04644000      77.99004000      6.74933000   
   585       C         25.77146000      77.99004000     25.35893000   
   586       C         23.04644000      32.73936000     11.86027000   
   587       C         23.04644000      32.73936000     25.35893000   
   588       C         25.77146000      77.99004000     11.86027000   
   589       C         47.45539000      22.62534000     11.86027000   
   590       C          1.36251000      88.10406000     25.35893000   
   591       C          1.36251000      88.10406000     11.86027000   
   592       C         47.45539000      22.62534000     25.35893000   
   593       C          2.69328000      22.46146000      7.16172000   
   594       C         46.12462000      88.26794000     30.05748000   
   595       C         46.12462000      88.26794000      7.16172000   
   596       C          2.69328000      22.46146000     30.05748000   
   597       C         21.71567000      77.82616000     30.05748000   
   598       C         27.10223000      32.90324000      7.16172000   
   599       C         27.10223000      32.90324000     30.05748000   
   600       C         21.71567000      77.82616000      7.16172000   
   601       C         27.10223000      77.82616000     25.77132000   
   602       C         21.71567000      32.90324000     11.44788000   
   603       C         21.71567000      32.90324000     25.77132000   
   604       C         27.10223000      77.82616000     11.44788000   
   605       C         46.12462000      22.46146000     11.44788000   
   606       C          2.69328000      88.26794000     25.77132000   
   607       C          2.69328000      88.26794000     11.44788000   
   608       C         46.12462000      22.46146000     25.77132000   
   609       C          3.12386000      23.10147000      8.33226000   
   610       C         45.69404000      87.62793000     28.88694000   
   611       C         45.69404000      87.62793000      8.33226000   
   612       C          3.12386000      23.10147000     28.88694000   
   613       C         21.28509000      78.46617000     28.88694000   
   614       C         27.53281000      32.26323000      8.33226000   
   615       C         27.53281000      32.26323000     28.88694000   
   616       C         21.28509000      78.46617000      8.33226000   
   617       C         27.53281000      78.46617000     26.94186000   
   618       C         21.28509000      32.26323000     10.27734000   
   619       C         21.28509000      32.26323000     26.94186000   
   620       C         27.53281000      78.46617000     10.27734000   
   621       C         45.69404000      23.10147000     10.27734000   
   622       C          3.12386000      87.62793000     26.94186000   
   623       C          3.12386000      87.62793000     10.27734000   
   624       C         45.69404000      23.10147000     26.94186000   
   625       C          2.26808000      23.95077000      9.03347000   
   626       C         46.54982000      86.77863000     28.18573000   
   627       C         46.54982000      86.77863000      9.03347000   
   628       C          2.26808000      23.95077000     28.18573000   
   629       C         22.14087000      79.31547000     28.18573000   
   630       C         26.67703000      31.41393000      9.03347000   
   631       C         26.67703000      31.41393000     28.18573000   
   632       C         22.14087000      79.31547000      9.03347000   
   633       C         26.67703000      79.31547000     27.64307000   
   634       C         22.14087000      31.41393000      9.57613000   
   635       C         22.14087000      31.41393000     27.64307000   
   636       C         26.67703000      79.31547000      9.57613000   
   637       C         46.54982000      23.95077000      9.57613000   
   638       C          2.26808000      86.77863000     27.64307000   
   639       C          2.26808000      86.77863000      9.57613000   
   640       C         46.54982000      23.95077000     27.64307000   
   641       C          3.63937000      21.63985000      6.36858000   
   642       C         45.17853000      89.08955000     30.85062000   
   643       C         45.17853000      89.08955000      6.36858000   
   644       C          3.63937000      21.63985000     30.85062000   
   645       C         20.76958000      77.00455000     30.85062000   
   646       C         28.04832000      33.72485000      6.36858000   
   647       C         28.04832000      33.72485000     30.85062000   
   648       C         20.76958000      77.00455000      6.36858000   
   649       C         28.04832000      77.00455000     24.97818000   
   650       C         20.76958000      33.72485000     12.24102000   
   651       C         20.76958000      33.72485000     24.97818000   
   652       C         28.04832000      77.00455000     12.24102000   
   653       C         45.17853000      21.63985000     12.24102000   
   654       C          3.63937000      89.08955000     24.97818000   
   655       C          3.63937000      89.08955000     12.24102000   
   656       C         45.17853000      21.63985000     24.97818000   
   657       C          0.32952000      56.87062000      7.24956000   
   658       C         48.48838000      53.85878000     29.96964000   
   659       C         48.48838000      53.85878000      7.24956000   
   660       C          0.32952000      56.87062000     29.96964000   
   661       C         24.07943000       1.50592000     29.96964000   
   662       C         24.73847000     109.22348000      7.24956000   
   663       C         24.73847000     109.22348000     29.96964000   
   664       C         24.07943000       1.50592000      7.24956000   
   665       C         24.73847000       1.50592000     25.85916000   
   666       C         24.07943000     109.22348000     11.36004000   
   667       C         24.07943000     109.22348000     25.85916000   
   668       C         24.73847000       1.50592000     11.36004000   
   669       C         48.48838000      56.87062000     11.36004000   
   670       C          0.32952000      53.85878000     25.85916000   
   671       C          0.32952000      53.85878000     11.36004000   
   672       C         48.48838000      56.87062000     25.85916000   
   673       C          1.04324000      57.81957000      6.51708000   
   674       C         47.77466000      52.90983000     30.70212000   
   675       C         47.77466000      52.90983000      6.51708000   
   676       C          1.04324000      57.81957000     30.70212000   
   677       C         23.36571000       2.45487000     30.70212000   
   678       C         25.45219000     108.27453000      6.51708000   
   679       C         25.45219000     108.27453000     30.70212000   
   680       C         23.36571000       2.45487000      6.51708000   
   681       C         25.45219000       2.45487000     25.12668000   
   682       C         23.36571000     108.27453000     12.09252000   
   683       C         23.36571000     108.27453000     25.12668000   
   684       C         25.45219000       2.45487000     12.09252000   
   685       C         47.77466000      57.81957000     12.09252000   
   686       C          1.04324000      52.90983000     25.12668000   
   687       C          1.04324000      52.90983000     12.09252000   
   688       C         47.77466000      57.81957000     25.12668000   
   689       C          2.77627000      57.81625000      8.19976000   
   690       C         46.04163000      52.91315000     29.01944000   
   691       C         46.04163000      52.91315000      8.19976000   
   692       C          2.77627000      57.81625000     29.01944000   
   693       C         21.63268000       2.45155000     29.01944000   
   694       C         27.18522000     108.27785000      8.19976000   
   695       C         27.18522000     108.27785000     29.01944000   
   696       C         21.63268000       2.45155000      8.19976000   
   697       C         27.18522000       2.45155000     26.80936000   
   698       C         21.63268000     108.27785000     10.40984000   
   699       C         21.63268000     108.27785000     26.80936000   
   700       C         27.18522000       2.45155000     10.40984000   
   701       C         46.04163000      57.81625000     10.40984000   
   702       C          2.77627000      52.91315000     26.80936000   
   703       C          2.77627000      52.91315000     10.40984000   
   704       C         46.04163000      57.81625000     26.80936000   
   705       C          2.06207000      56.86508000      8.93372000   
   706       C         46.75583000      53.86432000     28.28548000   
   707       C         46.75583000      53.86432000      8.93372000   
   708       C          2.06207000      56.86508000     28.28548000   
   709       C         22.34688000       1.50038000     28.28548000   
   710       C         26.47102000     109.22902000      8.93372000   
   711       C         26.47102000     109.22902000     28.28548000   
   712       C         22.34688000       1.50038000      8.93372000   
   713       C         26.47102000       1.50038000     27.54332000   
   714       C         22.34688000     109.22902000      9.67588000   
   715       C         22.34688000     109.22902000     27.54332000   
   716       C         26.47102000       1.50038000      9.67588000   
   717       C         46.75583000      56.86508000      9.67588000   
   718       C          2.06207000      53.86432000     27.54332000   
   719       C          2.06207000      53.86432000      9.67588000   
   720       C         46.75583000      56.86508000     27.54332000   
   721       C          4.39898000      59.20812000      5.96773000   
   722       C         44.41892000      51.52128000     31.25147000   
   723       C         44.41892000      51.52128000      5.96773000   
   724       C          4.39898000      59.20812000     31.25147000   
   725       C         20.00997000       3.84342000     31.25147000   
   726       C         28.80793000     106.88598000      5.96773000   
   727       C         28.80793000     106.88598000     31.25147000   
   728       C         20.00997000       3.84342000      5.96773000   
   729       C         28.80793000       3.84342000     24.57733000   
   730       C         20.00997000     106.88598000     12.64187000   
   731       C         20.00997000     106.88598000     24.57733000   
   732       C         28.80793000       3.84342000     12.64187000   
   733       C         44.41892000      59.20812000     12.64187000   
   734       C          4.39898000      51.52128000     24.57733000   
   735       C          4.39898000      51.52128000     12.64187000   
   736       C         44.41892000      59.20812000     24.57733000   
   737       C          5.07511000      60.19361000      5.23972000   
   738       C         43.74279000      50.53579000     31.97948000   
   739       C         43.74279000      50.53579000      5.23972000   
   740       C          5.07511000      60.19361000     31.97948000   
   741       C         19.33384000       4.82891000     31.97948000   
   742       C         29.48406000     105.90049000      5.23972000   
   743       C         29.48406000     105.90049000     31.97948000   
   744       C         19.33384000       4.82891000      5.23972000   
   745       C         29.48406000       4.82891000     23.84932000   
   746       C         19.33384000     105.90049000     13.36988000   
   747       C         19.33384000     105.90049000     23.84932000   
   748       C         29.48406000       4.82891000     13.36988000   
   749       C         43.74279000      60.19361000     13.36988000   
   750       C          5.07511000      50.53579000     23.84932000   
   751       C          5.07511000      50.53579000     13.36988000   
   752       C         43.74279000      60.19361000     23.84932000   
   753       C          4.39605000      61.31641000      4.75140000   
   754       C         44.42185000      49.41299000     32.46780000   
   755       C         44.42185000      49.41299000      4.75140000   
   756       C          4.39605000      61.31641000     32.46780000   
   757       C         20.01290000       5.95171000     32.46780000   
   758       C         28.80500000     104.77769000      4.75140000   
   759       C         28.80500000     104.77769000     32.46780000   
   760       C         20.01290000       5.95171000      4.75140000   
   761       C         28.80500000       5.95171000     23.36100000   
   762       C         20.01290000     104.77769000     13.85820000   
   763       C         20.01290000     104.77769000     23.36100000   
   764       C         28.80500000       5.95171000     13.85820000   
   765       C         44.42185000      61.31641000     13.85820000   
   766       C          4.39605000      49.41299000     23.36100000   
   767       C          4.39605000      49.41299000     13.85820000   
   768       C         44.42185000      61.31641000     23.36100000   
   769       C          3.01011000      61.42713000      4.97621000   
   770       C         45.80779000      49.30227000     32.24299000   
   771       C         45.80779000      49.30227000      4.97621000   
   772       C          3.01011000      61.42713000     32.24299000   
   773       C         21.39884000       6.06243000     32.24299000   
   774       C         27.41906000     104.66697000      4.97621000   
   775       C         27.41906000     104.66697000     32.24299000   
   776       C         21.39884000       6.06243000      4.97621000   
   777       C         27.41906000       6.06243000     23.58581000   
   778       C         21.39884000     104.66697000     13.63339000   
   779       C         21.39884000     104.66697000     23.58581000   
   780       C         27.41906000       6.06243000     13.63339000   
   781       C         45.80779000      61.42713000     13.63339000   
   782       C          3.01011000      49.30227000     23.58581000   
   783       C          3.01011000      49.30227000     13.63339000   
   784       C         45.80779000      61.42713000     23.58581000   
   785       C          2.33252000      60.44386000      5.70161000   
   786       C         46.48538000      50.28554000     31.51759000   
   787       C         46.48538000      50.28554000      5.70161000   
   788       C          2.33252000      60.44386000     31.51759000   
   789       C         22.07643000       5.07916000     31.51759000   
   790       C         26.74147000     105.65024000      5.70161000   
   791       C         26.74147000     105.65024000     31.51759000   
   792       C         22.07643000       5.07916000      5.70161000   
   793       C         26.74147000       5.07916000     24.31121000   
   794       C         22.07643000     105.65024000     12.90799000   
   795       C         22.07643000     105.65024000     24.31121000   
   796       C         26.74147000       5.07916000     12.90799000   
   797       C         46.48538000      60.44386000     12.90799000   
   798       C          2.33252000      50.28554000     24.31121000   
   799       C          2.33252000      50.28554000     12.90799000   
   800       C         46.48538000      60.44386000     24.31121000   
   801       C         40.95236000      33.74146000      2.61018000   
   802       C          7.86554000      76.98794000     34.60902000   
   803       C          7.86554000      76.98794000      2.61018000   
   804       C         40.95236000      33.74146000     34.60902000   
   805       C         32.27449000      89.10616000     34.60902000   
   806       C         16.54341000      21.62324000      2.61018000   
   807       C         16.54341000      21.62324000     34.60902000   
   808       C         32.27449000      89.10616000      2.61018000   
   809       C         16.54341000      89.10616000     21.21978000   
   810       C         32.27449000      21.62324000     15.99942000   
   811       C         32.27449000      21.62324000     21.21978000   
   812       C         16.54341000      89.10616000     15.99942000   
   813       C          7.86554000      33.74146000     15.99942000   
   814       C         40.95236000      76.98794000     21.21978000   
   815       C         40.95236000      76.98794000     15.99942000   
   816       C          7.86554000      33.74146000     21.21978000   
   817       C         40.45735000      34.85762000      1.93205000   
   818       C          8.36055000      75.87178000     35.28715000   
   819       C          8.36055000      75.87178000      1.93205000   
   820       C         40.45735000      34.85762000     35.28715000   
   821       C         32.76950000      90.22232000     35.28715000   
   822       C         16.04840000      20.50708000      1.93205000   
   823       C         16.04840000      20.50708000     35.28715000   
   824       C         32.76950000      90.22232000      1.93205000   
   825       C         16.04840000      90.22232000     20.54165000   
   826       C         32.76950000      20.50708000     16.67755000   
   827       C         32.76950000      20.50708000     20.54165000   
   828       C         16.04840000      90.22232000     16.67755000   
   829       C          8.36055000      34.85762000     16.67755000   
   830       C         40.45735000      75.87178000     20.54165000   
   831       C         40.45735000      75.87178000     16.67755000   
   832       C          8.36055000      34.85762000     20.54165000   
   833       C         42.71078000      35.71355000      1.68938000   
   834       C          6.10712000      75.01585000     35.52982000   
   835       C          6.10712000      75.01585000      1.68938000   
   836       C         42.71078000      35.71355000     35.52982000   
   837       C         30.51607000      91.07825000     35.52982000   
   838       C         18.30183000      19.65115000      1.68938000   
   839       C         18.30183000      19.65115000     35.52982000   
   840       C         30.51607000      91.07825000      1.68938000   
   841       C         18.30183000      91.07825000     20.29898000   
   842       C         30.51607000      19.65115000     16.92022000   
   843       C         30.51607000      19.65115000     20.29898000   
   844       C         18.30183000      91.07825000     16.92022000   
   845       C          6.10712000      35.71355000     16.92022000   
   846       C         42.71078000      75.01585000     20.29898000   
   847       C         42.71078000      75.01585000     16.92022000   
   848       C          6.10712000      35.71355000     20.29898000   
   849       C         43.20824000      34.59740000      2.36937000   
   850       C          5.60966000      76.13200000     34.84983000   
   851       C          5.60966000      76.13200000      2.36937000   
   852       C         43.20824000      34.59740000     34.84983000   
   853       C         30.01861000      89.96210000     34.84983000   
   854       C         18.79929000      20.76730000      2.36937000   
   855       C         18.79929000      20.76730000     34.84983000   
   856       C         30.01861000      89.96210000      2.36937000   
   857       C         18.79929000      89.96210000     20.97897000   
   858       C         30.01861000      20.76730000     16.24023000   
   859       C         30.01861000      20.76730000     20.97897000   
   860       C         18.79929000      89.96210000     16.24023000   
   861       C          5.60966000      34.59740000     16.24023000   
   862       C         43.20824000      76.13200000     20.97897000   
   863       C         43.20824000      76.13200000     16.24023000   
   864       C          5.60966000      34.59740000     20.97897000   
   865       C         48.51962000      26.43886000      7.04932000   
   866       C          0.29828000      84.29054000     30.16988000   
   867       C          0.29828000      84.29054000      7.04932000   
   868       C         48.51962000      26.43886000     30.16988000   
   869       C         24.70723000      81.80356000     30.16988000   
   870       C         24.11067000      28.92584000      7.04932000   
   871       C         24.11067000      28.92584000     30.16988000   
   872       C         24.70723000      81.80356000      7.04932000   
   873       C         24.11067000      81.80356000     25.65892000   
   874       C         24.70723000      28.92584000     11.56028000   
   875       C         24.70723000      28.92584000     25.65892000   
   876       C         24.11067000      81.80356000     11.56028000   
   877       C          0.29828000      26.43886000     11.56028000   
   878       C         48.51962000      84.29054000     25.65892000   
   879       C         48.51962000      84.29054000     11.56028000   
   880       C          0.29828000      26.43886000     25.65892000   
   881       C         47.86888000      27.39556000      6.26325000   
   882       C          0.94902000      83.33384000     30.95595000   
   883       C          0.94902000      83.33384000      6.26325000   
   884       C         47.86888000      27.39556000     30.95595000   
   885       C         25.35797000      82.76026000     30.95595000   
   886       C         23.45993000      27.96914000      6.26325000   
   887       C         23.45993000      27.96914000     30.95595000   
   888       C         25.35797000      82.76026000      6.26325000   
   889       C         23.45993000      82.76026000     24.87285000   
   890       C         25.35797000      27.96914000     12.34635000   
   891       C         25.35797000      27.96914000     24.87285000   
   892       C         23.45993000      82.76026000     12.34635000   
   893       C          0.94902000      27.39556000     12.34635000   
   894       C         47.86888000      83.33384000     24.87285000   
   895       C         47.86888000      83.33384000     12.34635000   
   896       C          0.94902000      27.39556000     24.87285000   
   897       C         46.35113000      27.86395000      8.08252000   
   898       C          2.46677000      82.86545000     29.13668000   
   899       C          2.46677000      82.86545000      8.08252000   
   900       C         46.35113000      27.86395000     29.13668000   
   901       C         26.87572000      83.22865000     29.13668000   
   902       C         21.94218000      27.50075000      8.08252000   
   903       C         21.94218000      27.50075000     29.13668000   
   904       C         26.87572000      83.22865000      8.08252000   
   905       C         21.94218000      83.22865000     26.69212000   
   906       C         26.87572000      27.50075000     10.52708000   
   907       C         26.87572000      27.50075000     26.69212000   
   908       C         21.94218000      83.22865000     10.52708000   
   909       C          2.46677000      27.86395000     10.52708000   
   910       C         46.35113000      82.86545000     26.69212000   
   911       C         46.35113000      82.86545000     10.52708000   
   912       C          2.46677000      27.86395000     26.69212000   
   913       C         46.99797000      26.91057000      8.86747000   
   914       C          1.81993000      83.81883000     28.35173000   
   915       C          1.81993000      83.81883000      8.86747000   
   916       C         46.99797000      26.91057000     28.35173000   
   917       C         26.22888000      82.27527000     28.35173000   
   918       C         22.58902000      28.45413000      8.86747000   
   919       C         22.58902000      28.45413000     28.35173000   
   920       C         26.22888000      82.27527000      8.86747000   
   921       C         22.58902000      82.27527000     27.47707000   
   922       C         26.22888000      28.45413000      9.74213000   
   923       C         26.22888000      28.45413000     27.47707000   
   924       C         22.58902000      82.27527000      9.74213000   
   925       C          1.81993000      26.91057000      9.74213000   
   926       C         46.99797000      83.81883000     27.47707000   
   927       C         46.99797000      83.81883000      9.74213000   
   928       C          1.81993000      26.91057000     27.47707000   
   929       C         44.61077000      29.21927000      5.96438000   
   930       C          4.20713000      81.51013000     31.25482000   
   931       C          4.20713000      81.51013000      5.96438000   
   932       C         44.61077000      29.21927000     31.25482000   
   933       C         28.61608000      84.58397000     31.25482000   
   934       C         20.20182000      26.14543000      5.96438000   
   935       C         20.20182000      26.14543000     31.25482000   
   936       C         28.61608000      84.58397000      5.96438000   
   937       C         20.20182000      84.58397000     24.57398000   
   938       C         28.61608000      26.14543000     12.64522000   
   939       C         28.61608000      26.14543000     24.57398000   
   940       C         20.20182000      84.58397000     12.64522000   
   941       C          4.20713000      29.21927000     12.64522000   
   942       C         44.61077000      81.51013000     24.57398000   
   943       C         44.61077000      81.51013000     12.64522000   
   944       C          4.20713000      29.21927000     24.57398000   
   945       C         43.96540000      30.22913000      5.25423000   
   946       C          4.85250000      80.50027000     31.96497000   
   947       C          4.85250000      80.50027000      5.25423000   
   948       C         43.96540000      30.22913000     31.96497000   
   949       C         29.26145000      85.59383000     31.96497000   
   950       C         19.55645000      25.13557000      5.25423000   
   951       C         19.55645000      25.13557000     31.96497000   
   952       C         29.26145000      85.59383000      5.25423000   
   953       C         19.55645000      85.59383000     23.86383000   
   954       C         29.26145000      25.13557000     13.35537000   
   955       C         29.26145000      25.13557000     23.86383000   
   956       C         19.55645000      85.59383000     13.35537000   
   957       C          4.85250000      30.22913000     13.35537000   
   958       C         43.96540000      80.50027000     23.86383000   
   959       C         43.96540000      80.50027000     13.35537000   
   960       C          4.85250000      30.22913000     23.86383000   
   961       C         46.10997000      31.09503000      4.50911000   
   962       C          2.70793000      79.63437000     32.71009000   
   963       C          2.70793000      79.63437000      4.50911000   
   964       C         46.10997000      31.09503000     32.71009000   
   965       C         27.11688000      86.45973000     32.71009000   
   966       C         21.70102000      24.26967000      4.50911000   
   967       C         21.70102000      24.26967000     32.71009000   
   968       C         27.11688000      86.45973000      4.50911000   
   969       C         21.70102000      86.45973000     23.11871000   
   970       C         27.11688000      24.26967000     14.10049000   
   971       C         27.11688000      24.26967000     23.11871000   
   972       C         21.70102000      86.45973000     14.10049000   
   973       C          2.70793000      31.09503000     14.10049000   
   974       C         46.10997000      79.63437000     23.11871000   
   975       C         46.10997000      79.63437000     14.10049000   
   976       C          2.70793000      31.09503000     23.11871000   
   977       C         46.79586000      30.10068000      5.21404000   
   978       C          2.02204000      80.62872000     32.00516000   
   979       C          2.02204000      80.62872000      5.21404000   
   980       C         46.79586000      30.10068000     32.00516000   
   981       C         26.43099000      85.46538000     32.00516000   
   982       C         22.38691000      25.26402000      5.21404000   
   983       C         22.38691000      25.26402000     32.00516000   
   984       C         26.43099000      85.46538000      5.21404000   
   985       C         22.38691000      85.46538000     23.82364000   
   986       C         26.43099000      25.26402000     13.39556000   
   987       C         26.43099000      25.26402000     23.82364000   
   988       C         22.38691000      85.46538000     13.39556000   
   989       C          2.02204000      30.10068000     13.39556000   
   990       C         46.79586000      80.62872000     23.82364000   
   991       C         46.79586000      80.62872000     13.39556000   
   992       C          2.02204000      30.10068000     23.82364000   
   993       C         21.13717000      75.72673000      5.91413000   
   994       C         27.68073000      35.00267000     31.30507000   
   995       C         27.68073000      35.00267000      5.91413000   
   996       C         21.13717000      75.72673000     31.30507000   
   997       C          3.27178000      20.36203000     31.30507000   
   998       C         45.54612000      90.36737000      5.91413000   
   999       C         45.54612000      90.36737000     31.30507000   
  1000       C          3.27178000      20.36203000      5.91413000   
  1001       C         45.54612000      20.36203000     24.52373000   
  1002       C          3.27178000      90.36737000     12.69547000   
  1003       C          3.27178000      90.36737000     24.52373000   
  1004       C         45.54612000      20.36203000     12.69547000   
  1005       C         27.68073000      75.72673000     12.69547000   
  1006       C         21.13717000      35.00267000     24.52373000   
  1007       C         21.13717000      35.00267000     12.69547000   
  1008       C         27.68073000      75.72673000     24.52373000   
  1009       C         20.23892000      74.94830000      5.17384000   
  1010       C         28.57898000      35.78110000     32.04536000   
  1011       C         28.57898000      35.78110000      5.17384000   
  1012       C         20.23892000      74.94830000     32.04536000   
  1013       C          4.17003000      19.58360000     32.04536000   
  1014       C         44.64787000      91.14580000      5.17384000   
  1015       C         44.64787000      91.14580000     32.04536000   
  1016       C          4.17003000      19.58360000      5.17384000   
  1017       C         44.64787000      19.58360000     23.78344000   
  1018       C          4.17003000      91.14580000     13.43576000   
  1019       C          4.17003000      91.14580000     23.78344000   
  1020       C         44.64787000      19.58360000     13.43576000   
  1021       C         28.57898000      74.94830000     13.43576000   
  1022       C         20.23892000      35.78110000     23.78344000   
  1023       C         20.23892000      35.78110000     13.43576000   
  1024       C         28.57898000      74.94830000     23.78344000   
  1025       C         18.95501000      75.44326000      4.87125000   
  1026       C         29.86289000      35.28614000     32.34795000   
  1027       C         29.86289000      35.28614000      4.87125000   
  1028       C         18.95501000      75.44326000     32.34795000   
  1029       C          5.45394000      20.07856000     32.34795000   
  1030       C         43.36396000      90.65084000      4.87125000   
  1031       C         43.36396000      90.65084000     32.34795000   
  1032       C          5.45394000      20.07856000      4.87125000   
  1033       C         43.36396000      20.07856000     23.48085000   
  1034       C          5.45394000      90.65084000     13.73835000   
  1035       C          5.45394000      90.65084000     23.48085000   
  1036       C         43.36396000      20.07856000     13.73835000   
  1037       C         29.86289000      75.44326000     13.73835000   
  1038       C         18.95501000      35.28614000     23.48085000   
  1039       C         18.95501000      35.28614000     13.73835000   
  1040       C         29.86289000      75.44326000     23.48085000   
  1041       C         18.59864000      76.72108000      5.31230000   
  1042       C         30.21926000      34.00832000     31.90690000   
  1043       C         30.21926000      34.00832000      5.31230000   
  1044       C         18.59864000      76.72108000     31.90690000   
  1045       C          5.81031000      21.35638000     31.90690000   
  1046       C         43.00759000      89.37302000      5.31230000   
  1047       C         43.00759000      89.37302000     31.90690000   
  1048       C          5.81031000      21.35638000      5.31230000   
  1049       C         43.00759000      21.35638000     23.92190000   
  1050       C          5.81031000      89.37302000     13.29730000   
  1051       C          5.81031000      89.37302000     23.92190000   
  1052       C         43.00759000      21.35638000     13.29730000   
  1053       C         30.21926000      76.72108000     13.29730000   
  1054       C         18.59864000      34.00832000     23.92190000   
  1055       C         18.59864000      34.00832000     13.29730000   
  1056       C         30.21926000      76.72108000     23.92190000   
  1057       C         19.49103000      77.49951000      6.05147000   
  1058       C         29.32687000      33.22989000     31.16773000   
  1059       C         29.32687000      33.22989000      6.05147000   
  1060       C         19.49103000      77.49951000     31.16773000   
  1061       C          4.91792000      22.13481000     31.16773000   
  1062       C         43.89998000      88.59459000      6.05147000   
  1063       C         43.89998000      88.59459000     31.16773000   
  1064       C          4.91792000      22.13481000      6.05147000   
  1065       C         43.89998000      22.13481000     24.66107000   
  1066       C          4.91792000      88.59459000     12.55813000   
  1067       C          4.91792000      88.59459000     24.66107000   
  1068       C         43.89998000      22.13481000     12.55813000   
  1069       C         29.32687000      77.49951000     12.55813000   
  1070       C         19.49103000      33.22989000     24.66107000   
  1071       C         19.49103000      33.22989000     12.55813000   
  1072       C         29.32687000      77.49951000     24.66107000   
  1073       C         24.40895000      80.53903000      9.30480000   
  1074       C         24.40895000      30.19037000     27.91440000   
  1075       C         24.40895000      30.19037000      9.30480000   
  1076       C         24.40895000      80.53903000     27.91440000   
  1077       C          0.00000000      25.17433000     27.91440000   
  1078       C          0.00000000      85.55507000      9.30480000   
  1079       C          0.00000000      85.55507000     27.91440000   
  1080       C          0.00000000      25.17433000      9.30480000   
  1081       C          0.00000000      55.36470000      9.30480000   
  1082       C          0.00000000      55.36470000     27.91440000   
  1083       C         24.40895000       0.00000000     27.91440000   
  1084       C         24.40895000       0.00000000      9.30480000   
  1085       N         17.97719000      74.70359000      4.12165000   
  1086       N         30.84071000      36.02581000     33.09755000   
  1087       N         30.84071000      36.02581000      4.12165000   
  1088       N         17.97719000      74.70359000     33.09755000   
  1089       N          6.43176000      19.33889000     33.09755000   
  1090       N         42.38614000      91.39051000      4.12165000   
  1091       N         42.38614000      91.39051000     33.09755000   
[...]
 1041  C   1.22161   1.00299   0.93105   0.98583
 1042  C   1.22161   1.00299   0.93105   0.98583
 1043  C   1.22161   1.00299   0.93105   0.98583
 1044  C   1.22161   1.00299   0.93105   0.98583
 1045  C   1.22161   1.00299   0.93105   0.98583
 1046  C   1.22161   1.00299   0.93105   0.98583
 1047  C   1.22161   1.00299   0.93105   0.98583
 1048  C   1.22161   1.00299   0.93105   0.98583
 1049  C   1.22161   1.00299   0.93105   0.98583
 1050  C   1.22161   1.00299   0.93105   0.98583
 1051  C   1.22161   1.00299   0.93105   0.98583
 1052  C   1.22161   1.00299   0.93105   0.98583
 1053  C   1.22161   1.00299   0.93105   0.98583
 1054  C   1.22161   1.00299   0.93105   0.98583
 1055  C   1.22161   1.00299   0.93105   0.98583
 1056  C   1.22161   1.00299   0.93105   0.98583
 1057  C   1.18153   0.92405   0.81018   0.98183
 1058  C   1.18153   0.92405   0.81018   0.98183
 1059  C   1.18153   0.92405   0.81018   0.98183
 1060  C   1.18153   0.92405   0.81018   0.98183
 1061  C   1.18153   0.92405   0.81018   0.98183
 1062  C   1.18153   0.92405   0.81018   0.98183
 1063  C   1.18153   0.92405   0.81018   0.98183
 1064  C   1.18153   0.92405   0.81018   0.98183
 1065  C   1.18153   0.92405   0.81018   0.98183
 1066  C   1.18153   0.92405   0.81018   0.98183
 1067  C   1.18153   0.92405   0.81018   0.98183
 1068  C   1.18153   0.92405   0.81018   0.98183
 1069  C   1.18153   0.92405   0.81018   0.98183
 1070  C   1.18153   0.92405   0.81018   0.98183
 1071  C   1.18153   0.92405   0.81018   0.98183
 1072  C   1.18153   0.92405   0.81018   0.98183
 1073  C   1.18830   0.90109   0.88244   0.90398
 1074  C   1.18830   0.90109   0.88244   0.90398
 1075  C   1.18830   0.90109   0.88244   0.90398
 1076  C   1.18830   0.90109   0.88244   0.90398
 1077  C   1.18830   0.90109   0.88244   0.90398
 1078  C   1.18830   0.90109   0.88244   0.90398
 1079  C   1.18830   0.90109   0.88244   0.90398
 1080  C   1.18830   0.90109   0.88244   0.90398
 1081  C   1.18710   0.90398   0.88280   0.90251
 1082  C   1.18710   0.90398   0.88280   0.90251
 1083  C   1.18710   0.90398   0.88280   0.90251
 1084  C   1.18710   0.90398   0.88280   0.90251
 1085  N   1.68774   1.31355   1.10547   1.09148
 1086  N   1.68774   1.31355   1.10547   1.09148
 1087  N   1.68774   1.31355   1.10547   1.09148
 1088  N   1.68774   1.31355   1.10547   1.09148
 1089  N   1.68774   1.31355   1.10547   1.09148
 1090  N   1.68774   1.31355   1.10547   1.09148
 1091  N   1.68774   1.31355   1.10547   1.09148
 1092  N   1.68774   1.31355   1.10547   1.09148
 1093  N   1.68774   1.31355   1.10547   1.09148
 1094  N   1.68774   1.31355   1.10547   1.09148
 1095  N   1.68774   1.31355   1.10547   1.09148
 1096  N   1.68774   1.31355   1.10547   1.09148
 1097  N   1.68774   1.31355   1.10547   1.09148
 1098  N   1.68774   1.31355   1.10547   1.09148
 1099  N   1.68774   1.31355   1.10547   1.09148
 1100  N   1.68774   1.31355   1.10547   1.09148
 1101  N   1.69442   1.33753   1.02788   1.12453
 1102  N   1.69442   1.33753   1.02788   1.12453
 1103  N   1.69442   1.33753   1.02788   1.12453
 1104  N   1.69442   1.33753   1.02788   1.12453
 1105  N   1.69442   1.33753   1.02788   1.12453
 1106  N   1.69442   1.33753   1.02788   1.12453
 1107  N   1.69442   1.33753   1.02788   1.12453
 1108  N   1.69442   1.33753   1.02788   1.12453
 1109  N   1.69442   1.33753   1.02788   1.12453
 1110  N   1.69442   1.33753   1.02788   1.12453
 1111  N   1.69442   1.33753   1.02788   1.12453
 1112  N   1.69442   1.33753   1.02788   1.12453
 1113  N   1.69442   1.33753   1.02788   1.12453
 1114  N   1.69442   1.33753   1.02788   1.12453
 1115  N   1.69442   1.33753   1.02788   1.12453
 1116  N   1.69442   1.33753   1.02788   1.12453
 1117  N   1.69157   1.15580   1.21476   1.12822
 1118  N   1.69157   1.15580   1.21476   1.12822
 1119  N   1.69157   1.15580   1.21476   1.12822
 1120  N   1.69157   1.15580   1.21476   1.12822
 1121  N   1.69157   1.15580   1.21476   1.12822
 1122  N   1.69157   1.15580   1.21476   1.12822
 1123  N   1.69157   1.15580   1.21476   1.12822
 1124  N   1.69157   1.15580   1.21476   1.12822
 1125  N   1.69157   1.15580   1.21476   1.12822
 1126  N   1.69157   1.15580   1.21476   1.12822
 1127  N   1.69157   1.15580   1.21476   1.12822
 1128  N   1.69157   1.15580   1.21476   1.12822
 1129  N   1.69157   1.15580   1.21476   1.12822
 1130  N   1.69157   1.15580   1.21476   1.12822
 1131  N   1.69157   1.15580   1.21476   1.12822
 1132  N   1.69157   1.15580   1.21476   1.12822
 1133  F   1.91742   1.91218   1.37573   1.89459
 1134  F   1.91742   1.91218   1.37573   1.89459
 1135  F   1.91742   1.91218   1.37573   1.89459
 1136  F   1.91742   1.91218   1.37573   1.89459
 1137  F   1.91742   1.91218   1.37573   1.89459
 1138  F   1.91742   1.91218   1.37573   1.89459
 1139  F   1.91742   1.91218   1.37573   1.89459
 1140  F   1.91742   1.91218   1.37573   1.89459
 1141  F   1.91742   1.91218   1.37573   1.89459
 1142  F   1.91742   1.91218   1.37573   1.89459
 1143  F   1.91742   1.91218   1.37573   1.89459
 1144  F   1.91742   1.91218   1.37573   1.89459
 1145  F   1.91742   1.91218   1.37573   1.89459
 1146  F   1.91742   1.91218   1.37573   1.89459
 1147  F   1.91742   1.91218   1.37573   1.89459
 1148  F   1.91742   1.91218   1.37573   1.89459
 1149  F   1.91746   1.27410   1.95945   1.94867
 1150  F   1.91746   1.27410   1.95945   1.94867
 1151  F   1.91746   1.27410   1.95945   1.94867
 1152  F   1.91746   1.27410   1.95945   1.94867
 1153  F   1.91746   1.27410   1.95945   1.94867
 1154  F   1.91746   1.27410   1.95945   1.94867
 1155  F   1.91746   1.27410   1.95945   1.94867
 1156  F   1.91746   1.27410   1.95945   1.94867
 1157  F   1.91746   1.27410   1.95945   1.94867
 1158  F   1.91746   1.27410   1.95945   1.94867
 1159  F   1.91746   1.27410   1.95945   1.94867
 1160  F   1.91746   1.27410   1.95945   1.94867
 1161  F   1.91746   1.27410   1.95945   1.94867
 1162  F   1.91746   1.27410   1.95945   1.94867
 1163  F   1.91746   1.27410   1.95945   1.94867
 1164  F   1.91746   1.27410   1.95945   1.94867
 1165  F   1.91756   1.78880   1.51764   1.87610
 1166  F   1.91756   1.78880   1.51764   1.87610
 1167  F   1.91756   1.78880   1.51764   1.87610
 1168  F   1.91756   1.78880   1.51764   1.87610
 1169  F   1.91756   1.78880   1.51764   1.87610
 1170  F   1.91756   1.78880   1.51764   1.87610
 1171  F   1.91756   1.78880   1.51764   1.87610
 1172  F   1.91756   1.78880   1.51764   1.87610
 1173  F   1.91756   1.78880   1.51764   1.87610
 1174  F   1.91756   1.78880   1.51764   1.87610
 1175  F   1.91756   1.78880   1.51764   1.87610
 1176  F   1.91756   1.78880   1.51764   1.87610
 1177  F   1.91756   1.78880   1.51764   1.87610
 1178  F   1.91756   1.78880   1.51764   1.87610
 1179  F   1.91756   1.78880   1.51764   1.87610
 1180  F   1.91756   1.78880   1.51764   1.87610
 1181  H   0.85185
 1182  H   0.85185
 1183  H   0.85185
 1184  H   0.85185
 1185  H   0.85185
 1186  H   0.85185
 1187  H   0.85185
 1188  H   0.85185
 1189  H   0.85185
 1190  H   0.85185
 1191  H   0.85185
 1192  H   0.85185
 1193  H   0.85185
 1194  H   0.85185
 1195  H   0.85185
 1196  H   0.85185
 1197  H   0.89666
 1198  H   0.89666
 1199  H   0.89666
 1200  H   0.89666
 1201  H   0.89666
 1202  H   0.89666
 1203  H   0.89666
 1204  H   0.89666
 1205  H   0.89666
 1206  H   0.89666
 1207  H   0.89666
 1208  H   0.89666
 1209  H   0.89666
 1210  H   0.89666
 1211  H   0.89666
 1212  H   0.89666
 1213  H   0.89536
 1214  H   0.89536
 1215  H   0.89536
 1216  H   0.89536
 1217  H   0.89536
 1218  H   0.89536
 1219  H   0.89536
 1220  H   0.89536
 1221  H   0.89536
 1222  H   0.89536
 1223  H   0.89536
 1224  H   0.89536
 1225  H   0.89536
 1226  H   0.89536
 1227  H   0.89536
 1228  H   0.89536
 1229  H   0.85209
 1230  H   0.85209
 1231  H   0.85209
 1232  H   0.85209
 1233  H   0.85209
 1234  H   0.85209
 1235  H   0.85209
 1236  H   0.85209
 1237  H   0.85209
 1238  H   0.85209
 1239  H   0.85209
 1240  H   0.85209
 1241  H   0.85209
 1242  H   0.85209
 1243  H   0.85209
 1244  H   0.85209
 1245  H   0.85144
 1246  H   0.85144
 1247  H   0.85144
 1248  H   0.85144
 1249  H   0.85144
 1250  H   0.85144
 1251  H   0.85144
 1252  H   0.85144
 1253  H   0.85144
 1254  H   0.85144
 1255  H   0.85144
 1256  H   0.85144
 1257  H   0.85144
 1258  H   0.85144
 1259  H   0.85144
 1260  H   0.85144
 1261  H   0.89656
 1262  H   0.89656
 1263  H   0.89656
 1264  H   0.89656
 1265  H   0.89656
 1266  H   0.89656
 1267  H   0.89656
 1268  H   0.89656
 1269  H   0.89656
 1270  H   0.89656
 1271  H   0.89656
 1272  H   0.89656
 1273  H   0.89656
 1274  H   0.89656
 1275  H   0.89656
 1276  H   0.89656
 1277  H   0.87245
 1278  H   0.87245
 1279  H   0.87245
 1280  H   0.87245
 1281  H   0.87245
 1282  H   0.87245
 1283  H   0.87245
 1284  H   0.87245
 1285  H   0.87245
 1286  H   0.87245
 1287  H   0.87245
 1288  H   0.87245
 1289  H   0.87245
 1290  H   0.87245
 1291  H   0.87245
 1292  H   0.87245
 1293  H   0.86360
 1294  H   0.86360
 1295  H   0.86360
 1296  H   0.86360
 1297  H   0.86360
 1298  H   0.86360
 1299  H   0.86360
 1300  H   0.86360
 1301  H   0.86360
 1302  H   0.86360
 1303  H   0.86360
 1304  H   0.86360
 1305  H   0.86360
 1306  H   0.86360
 1307  H   0.86360
 1308  H   0.86360
 1309  H   0.85683
 1310  H   0.85683
 1311  H   0.85683
 1312  H   0.85683
 1313  H   0.85683
 1314  H   0.85683
 1315  H   0.85683
 1316  H   0.85683
 1317  H   0.85683
 1318  H   0.85683
 1319  H   0.85683
 1320  H   0.85683
 1321  H   0.85683
 1322  H   0.85683
 1323  H   0.85683
 1324  H   0.85683
 1325  H   0.85644
 1326  H   0.85644
 1327  H   0.85644
 1328  H   0.85644
 1329  H   0.85644
 1330  H   0.85644
 1331  H   0.85644
 1332  H   0.85644
 1333  H   0.85644
 1334  H   0.85644
 1335  H   0.85644
 1336  H   0.85644
 1337  H   0.85644
 1338  H   0.85644
 1339  H   0.85644
 1340  H   0.85644
 1341  H   0.83568
 1342  H   0.83568
 1343  H   0.83568
 1344  H   0.83568
 1345  H   0.83568
 1346  H   0.83568
 1347  H   0.83568
 1348  H   0.83568
 1349  H   0.83568
 1350  H   0.83568
 1351  H   0.83568
 1352  H   0.83568
 1353  H   0.83568
 1354  H   0.83568
 1355  H   0.83568
 1356  H   0.83568
 1357  H   0.86452
 1358  H   0.86452
 1359  H   0.86452
 1360  H   0.86452
 1361  H   0.86452
 1362  H   0.86452
 1363  H   0.86452
 1364  H   0.86452
 1365  H   0.86452
 1366  H   0.86452
 1367  H   0.86452
 1368  H   0.86452
 1369  H   0.86452
 1370  H   0.86452
 1371  H   0.86452
 1372  H   0.86452
 1373  H   0.85831
 1374  H   0.85831
 1375  H   0.85831
 1376  H   0.85831
 1377  H   0.85831
 1378  H   0.85831
 1379  H   0.85831
 1380  H   0.85831
 1381  H   0.85831
 1382  H   0.85831
 1383  H   0.85831
 1384  H   0.85831
 1385  H   0.85831
 1386  H   0.85831
 1387  H   0.85831
 1388  H   0.85831
 1389  H   0.85568
 1390  H   0.85568
 1391  H   0.85568
 1392  H   0.85568
 1393  H   0.85568
 1394  H   0.85568
 1395  H   0.85568
 1396  H   0.85568
 1397  H   0.85568
 1398  H   0.85568
 1399  H   0.85568
 1400  H   0.85568
 1401  H   0.85568
 1402  H   0.85568
 1403  H   0.85568
 1404  H   0.85568
 1405  H   0.83559
 1406  H   0.83559
 1407  H   0.83559
 1408  H   0.83559
 1409  H   0.83559
 1410  H   0.83559
 1411  H   0.83559
 1412  H   0.83559
 1413  H   0.83559
 1414  H   0.83559
 1415  H   0.83559
 1416  H   0.83559
 1417  H   0.83559
 1418  H   0.83559
 1419  H   0.83559
 1420  H   0.83559
 1421  H   0.85508
 1422  H   0.85508
 1423  H   0.85508
 1424  H   0.85508
 1425  H   0.85508
 1426  H   0.85508
 1427  H   0.85508
 1428  H   0.85508
 1429  H   0.85508
 1430  H   0.85508
 1431  H   0.85508
 1432  H   0.85508
 1433  H   0.85508
 1434  H   0.85508
 1435  H   0.85508
 1436  H   0.85508
 1437  H   0.86125
 1438  H   0.86125
 1439  H   0.86125
 1440  H   0.86125
 1441  H   0.86125
 1442  H   0.86125
 1443  H   0.86125
 1444  H   0.86125
 1445  H   0.86125
 1446  H   0.86125
 1447  H   0.86125
 1448  H   0.86125
 1449  H   0.86125
 1450  H   0.86125
 1451  H   0.86125
 1452  H   0.86125
 1453  H   0.85625
 1454  H   0.85625
 1455  H   0.85625
 1456  H   0.85625
 1457  H   0.85625
 1458  H   0.85625
 1459  H   0.85625
 1460  H   0.85625
 1461  H   0.85625
 1462  H   0.85625
 1463  H   0.85625
 1464  H   0.85625
 1465  H   0.85625
 1466  H   0.85625
 1467  H   0.85625
 1468  H   0.85625
 1469  H   0.85270
 1470  H   0.85270
 1471  H   0.85270
 1472  H   0.85270
 1473  H   0.85270
 1474  H   0.85270
 1475  H   0.85270
 1476  H   0.85270
 1477  H   0.85270
 1478  H   0.85270
 1479  H   0.85270
 1480  H   0.85270
 1481  H   0.85270
 1482  H   0.85270
 1483  H   0.85270
 1484  H   0.85270
 1485  H   0.85467
 1486  H   0.85467
 1487  H   0.85467
 1488  H   0.85467
 1489  H   0.85467
 1490  H   0.85467
 1491  H   0.85467
 1492  H   0.85467
 1493  H   0.85467
 1494  H   0.85467
 1495  H   0.85467
 1496  H   0.85467
 1497  H   0.85467
 1498  H   0.85467
 1499  H   0.85467
 1500  H   0.85467
 1501  H   0.86098
 1502  H   0.86098
 1503  H   0.86098
 1504  H   0.86098
 1505  H   0.86098
 1506  H   0.86098
 1507  H   0.86098
 1508  H   0.86098
 1509  H   0.86098
 1510  H   0.86098
 1511  H   0.86098
 1512  H   0.86098
 1513  H   0.86098
 1514  H   0.86098
 1515  H   0.86098
 1516  H   0.86098
 1517  H   0.85475
 1518  H   0.85475
 1519  H   0.85475
 1520  H   0.85475
 1521  H   0.85475
 1522  H   0.85475
 1523  H   0.85475
 1524  H   0.85475
 1525  H   0.85475
 1526  H   0.85475
 1527  H   0.85475
 1528  H   0.85475
 1529  H   0.85475
 1530  H   0.85475
 1531  H   0.85475
 1532  H   0.85475
 1533  H   0.85382
 1534  H   0.85382
 1535  H   0.85382
 1536  H   0.85382
 1537  H   0.85382
 1538  H   0.85382
 1539  H   0.85382
 1540  H   0.85382
 1541  H   0.85382
 1542  H   0.85382
 1543  H   0.85382
 1544  H   0.85382
 1545  H   0.85382
 1546  H   0.85382
 1547  H   0.85382
 1548  H   0.85382
 1549  H   0.83273
 1550  H   0.83273
 1551  H   0.83273
 1552  H   0.83273
 1553  H   0.83273
 1554  H   0.83273
 1555  H   0.83273
 1556  H   0.83273
 1557  H   0.83273
 1558  H   0.83273
 1559  H   0.83273
 1560  H   0.83273
 1561  H   0.83273
 1562  H   0.83273
 1563  H   0.83273
 1564  H   0.83273
 1565  H   0.86090
 1566  H   0.86090
 1567  H   0.86090
 1568  H   0.86090
 1569  H   0.86090
 1570  H   0.86090
 1571  H   0.86090
 1572  H   0.86090
 1573  H   0.86090
 1574  H   0.86090
 1575  H   0.86090
 1576  H   0.86090
 1577  H   0.86090
 1578  H   0.86090
 1579  H   0.86090
 1580  H   0.86090
 1581  H   0.85012
 1582  H   0.85012
 1583  H   0.85012
 1584  H   0.85012
 1585  H   0.85012
 1586  H   0.85012
 1587  H   0.85012
 1588  H   0.85012
 1589  H   0.85012
 1590  H   0.85012
 1591  H   0.85012
 1592  H   0.85012
 1593  H   0.85012
 1594  H   0.85012
 1595  H   0.85012
 1596  H   0.85012
 1597  H   0.86335
 1598  H   0.86335
 1599  H   0.86335
 1600  H   0.86335
 1601  H   0.86335
 1602  H   0.86335
 1603  H   0.86335
 1604  H   0.86335
 1605  H   0.86335
 1606  H   0.86335
 1607  H   0.86335
 1608  H   0.86335
 1609  H   0.86335
 1610  H   0.86335
 1611  H   0.86335
 1612  H   0.86335
 1613  H   0.85735
 1614  H   0.85735
 1615  H   0.85735
 1616  H   0.85735
 1617  H   0.85735
 1618  H   0.85735
 1619  H   0.85735
 1620  H   0.85735
 1621  H   0.85735
 1622  H   0.85735
 1623  H   0.85735
 1624  H   0.85735
 1625  H   0.85735
 1626  H   0.85735
 1627  H   0.85735
 1628  H   0.85735
 1629  H   0.85659
 1630  H   0.85659
 1631  H   0.85659
 1632  H   0.85659
 1633  H   0.85659
 1634  H   0.85659
 1635  H   0.85659
 1636  H   0.85659
 1637  H   0.85659
 1638  H   0.85659
 1639  H   0.85659
 1640  H   0.85659
 1641  H   0.85659
 1642  H   0.85659
 1643  H   0.85659
 1644  H   0.85659
 1645  H   0.83556
 1646  H   0.83556
 1647  H   0.83556
 1648  H   0.83556
 1649  H   0.83556
 1650  H   0.83556
 1651  H   0.83556
 1652  H   0.83556
 1653  H   0.83556
 1654  H   0.83556
 1655  H   0.83556
 1656  H   0.83556
 1657  H   0.83556
 1658  H   0.83556
 1659  H   0.83556
 1660  H   0.83556
 1661  H   0.85197
 1662  H   0.85197
 1663  H   0.85197
 1664  H   0.85197
 1665  H   0.85197
 1666  H   0.85197
 1667  H   0.85197
 1668  H   0.85197
 1669  H   0.85197
 1670  H   0.85197
 1671  H   0.85197
 1672  H   0.85197
 1673  H   0.85197
 1674  H   0.85197
 1675  H   0.85197
 1676  H   0.85197
 1677  H   0.85334
 1678  H   0.85334
 1679  H   0.85334
 1680  H   0.85334
 1681  H   0.85334
 1682  H   0.85334
 1683  H   0.85334
 1684  H   0.85334
 1685  H   0.85334
 1686  H   0.85334
 1687  H   0.85334
 1688  H   0.85334
 1689  H   0.85334
 1690  H   0.85334
 1691  H   0.85334
 1692  H   0.85334
 1693  H   0.86058
 1694  H   0.86058
 1695  H   0.86058
 1696  H   0.86058
 1697  H   0.86058
 1698  H   0.86058
 1699  H   0.86058
 1700  H   0.86058
 1701  H   0.86058
 1702  H   0.86058
 1703  H   0.86058
 1704  H   0.86058
 1705  H   0.86058
 1706  H   0.86058
 1707  H   0.86058
 1708  H   0.86058
 1709  H   0.85339
 1710  H   0.85339
 1711  H   0.85339
 1712  H   0.85339
 1713  H   0.85339
 1714  H   0.85339
 1715  H   0.85339
 1716  H   0.85339
 1717  H   0.85339
 1718  H   0.85339
 1719  H   0.85339
 1720  H   0.85339
 1721  H   0.85339
 1722  H   0.85339
 1723  H   0.85339
 1724  H   0.85339
 1725  H   0.84910
 1726  H   0.84910
 1727  H   0.84910
 1728  H   0.84910
 1729  H   0.84910
 1730  H   0.84910
 1731  H   0.84910
 1732  H   0.84910
 1733  H   0.84910
 1734  H   0.84910
 1735  H   0.84910
 1736  H   0.84910
 1737  H   0.84910
 1738  H   0.84910
 1739  H   0.84910
 1740  H   0.84910
 1741  H   0.86195
 1742  H   0.86195
 1743  H   0.86195
 1744  H   0.86195
 1745  H   0.86195
 1746  H   0.86195
 1747  H   0.86195
 1748  H   0.86195
 1749  H   0.86195
 1750  H   0.86195
 1751  H   0.86195
 1752  H   0.86195
 1753  H   0.86195
 1754  H   0.86195
 1755  H   0.86195
 1756  H   0.86195
 1757  H   0.83274
 1758  H   0.83274
 1759  H   0.83274
 1760  H   0.83274
 1761  H   0.83274
 1762  H   0.83274
 1763  H   0.83274
 1764  H   0.83274
 1765  H   0.83274
 1766  H   0.83274
 1767  H   0.83274
 1768  H   0.83274
 1769  H   0.83274
 1770  H   0.83274
 1771  H   0.83274
 1772  H   0.83274
 1773  H   0.85062
 1774  H   0.85062
 1775  H   0.85062
 1776  H   0.85062
 1777  H   0.85062
 1778  H   0.85062
 1779  H   0.85062
 1780  H   0.85062
 1781  H   0.85062
 1782  H   0.85062
 1783  H   0.85062
 1784  H   0.85062
 1785  H   0.85062
 1786  H   0.85062
 1787  H   0.85062
 1788  H   0.85062
 1789  H   0.86145
 1790  H   0.86145
 1791  H   0.86145
 1792  H   0.86145
 1793  H   0.86145
 1794  H   0.86145
 1795  H   0.86145
 1796  H   0.86145
 1797  H   0.86145
 1798  H   0.86145
 1799  H   0.86145
 1800  H   0.86145
 1801  H   0.86145
 1802  H   0.86145
 1803  H   0.86145
 1804  H   0.86145
 1805  H   0.83277
 1806  H   0.83277
 1807  H   0.83277
 1808  H   0.83277
 1809  H   0.83277
 1810  H   0.83277
 1811  H   0.83277
 1812  H   0.83277
 1813  H   0.83277
 1814  H   0.83277
 1815  H   0.83277
 1816  H   0.83277
 1817  H   0.83277
 1818  H   0.83277
 1819  H   0.83277
 1820  H   0.83277

 **********************
 *                    *
 * JOB ENDED NORMALLY *
 *                    *
 **********************



 TOTAL JOB TIME:          1372.36 SECONDS

 == MOPAC DONE ==
