 *******************************************************************************
 ** Cite this program as: MOPAC2016, Version: 22.067 , James J. P. Stewart,   **
 **                           web-site: HTTP://OpenMOPAC.net.                 **
 *******************************************************************************
 **                                                                           **
 **                                MOPAC2016                                  **
 **                                                                           **
 *******************************************************************************

                              AM1 CALCULATION RESULTS

 *******************************************************************************
 *  CALCULATION DONE:                                Wed Jun  8 11:10:23 2022  *
 *  AM1        - The AM1 Hamiltonian to be used
 *
 *
 *
 *                 CHARGE ON SYSTEM = 0
 *
 *
 *
 *  T=         - A TIME OF 172800.0 SECONDS REQUESTED
 *  DUMP=N     - RESTART FILE WRITTEN EVERY 7200.0 SECONDS REQUESTED
 *  PRTCHARGE  - PRINT CHARGES IN ARC FILE
 *******************************************************************************
AM1 CHARGE=0 PRTCHAR


   ATOM   CHEMICAL          X               Y               Z
  NUMBER   SYMBOL      (ANGSTROMS)     (ANGSTROMS)     (ANGSTROMS)
 
     1       C         11.02732000      71.27132000      0.70853000   
     2       C         38.32958000      40.18068000     35.75727000   
     3       C         38.32958000      40.18068000      0.70853000   
     4       C         11.02732000      71.27132000     35.75727000   
     5       C         13.65113000      15.54532000     35.75727000   
     6       C         35.70577000      95.90668000      0.70853000   
     7       C         35.70577000      95.90668000     35.75727000   
     8       C         13.65113000      15.54532000      0.70853000   
     9       C         35.70577000      15.54532000     18.94143000   
    10       C         13.65113000      95.90668000     17.52437000   
    11       C         13.65113000      95.90668000     18.94143000   
    12       C         35.70577000      15.54532000     17.52437000   
    13       C         38.32958000      71.27132000     17.52437000   
    14       C         11.02732000      40.18068000     18.94143000   
    15       C         11.02732000      40.18068000     17.52437000   
    16       C         38.32958000      71.27132000     18.94143000   
    17       C         13.38066000      71.84084000      0.71108000   
    18       C         35.97624000      39.61116000     35.75472000   
    19       C         35.97624000      39.61116000      0.71108000   
    20       C         13.38066000      71.84084000     35.75472000   
    21       C         11.29779000      16.11484000     35.75472000   
    22       C         38.05911000      95.33716000      0.71108000   
    23       C         38.05911000      95.33716000     35.75472000   
    24       C         11.29779000      16.11484000      0.71108000   
    25       C         38.05911000      16.11484000     18.94398000   
    26       C         11.29779000      95.33716000     17.52182000   
    27       C         11.29779000      95.33716000     18.94398000   
    28       C         38.05911000      16.11484000     17.52182000   
    29       C         35.97624000      71.84084000     17.52182000   
    30       C         13.38066000      39.61116000     18.94398000   
    31       C         13.38066000      39.61116000     17.52182000   
    32       C         35.97624000      71.84084000     18.94398000   
    33       C         12.19856000      71.54104000      1.41341000   
    34       C         37.15834000      39.91096000     35.05239000   
    35       C         37.15834000      39.91096000      1.41341000   
    36       C         12.19856000      71.54104000     35.05239000   
    37       C         12.47989000      15.81504000     35.05239000   
    38       C         36.87701000      95.63696000      1.41341000   
    39       C         36.87701000      95.63696000     35.05239000   
    40       C         12.47989000      15.81504000      1.41341000   
    41       C         36.87701000      15.81504000     19.64631000   
    42       C         12.47989000      95.63696000     16.81949000   
    43       C         12.47989000      95.63696000     19.64631000   
    44       C         36.87701000      15.81504000     16.81949000   
    45       C         37.15834000      71.54104000     16.81949000   
    46       C         12.19856000      39.91096000     19.64631000   
    47       C         12.19856000      39.91096000     16.81949000   
    48       C         37.15834000      71.54104000     19.64631000   
    49       C         14.54005000      72.33792000      1.47723000   
    50       C         34.81685000      39.11408000     34.98857000   
    51       C         34.81685000      39.11408000      1.47723000   
    52       C         14.54005000      72.33792000     34.98857000   
    53       C         10.13840000      16.61192000     34.98857000   
    54       C         39.21850000      94.84008000      1.47723000   
    55       C         39.21850000      94.84008000     34.98857000   
    56       C         10.13840000      16.61192000      1.47723000   
    57       C         39.21850000      16.61192000     19.71013000   
    58       C         10.13840000      94.84008000     16.75567000   
    59       C         10.13840000      94.84008000     19.71013000   
    60       C         39.21850000      16.61192000     16.75567000   
    61       C         34.81685000      72.33792000     16.75567000   
    62       C         14.54005000      39.11408000     19.71013000   
    63       C         14.54005000      39.11408000     16.75567000   
    64       C         34.81685000      72.33792000     19.71013000   
    65       C         16.74926000      73.34322000      2.90669000   
    66       C         32.60764000      38.10878000     33.55911000   
    67       C         32.60764000      38.10878000      2.90669000   
    68       C         16.74926000      73.34322000     33.55911000   
    69       C          7.92919000      17.61722000     33.55911000   
    70       C         41.42771000      93.83478000      2.90669000   
    71       C         41.42771000      93.83478000     33.55911000   
    72       C          7.92919000      17.61722000      2.90669000   
    73       C         41.42771000      17.61722000     21.13959000   
    74       C          7.92919000      93.83478000     15.32621000   
    75       C          7.92919000      93.83478000     21.13959000   
    76       C         41.42771000      17.61722000     15.32621000   
    77       C         32.60764000      73.34322000     15.32621000   
    78       C         16.74926000      38.10878000     21.13959000   
    79       C         16.74926000      38.10878000     15.32621000   
    80       C         32.60764000      73.34322000     21.13959000   
    81       C         17.91902000      73.88042000      3.63600000   
    82       C         31.43788000      37.57158000     32.82980000   
    83       C         31.43788000      37.57158000      3.63600000   
    84       C         17.91902000      73.88042000     32.82980000   
    85       C          6.75943000      18.15442000     32.82980000   
    86       C         42.59747000      93.29758000      3.63600000   
    87       C         42.59747000      93.29758000     32.82980000   
    88       C          6.75943000      18.15442000      3.63600000   
    89       C         42.59747000      18.15442000     21.86890000   
    90       C          6.75943000      93.29758000     14.59690000   
    91       C          6.75943000      93.29758000     21.86890000   
    92       C         42.59747000      18.15442000     14.59690000   
    93       C         31.43788000      73.88042000     14.59690000   
    94       C         17.91902000      37.57158000     21.86890000   
    95       C         17.91902000      37.57158000     14.59690000   
    96       C         31.43788000      73.88042000     21.86890000   
    97       C         23.71105000      79.66478000      8.37328000   
    98       C         25.64585000      31.78722000     28.09252000   
    99       C         25.64585000      31.78722000      8.37328000   
   100       C         23.71105000      79.66478000     28.09252000   
   101       C          0.96740000      23.93878000     28.09252000   
   102       C         48.38950000      87.51322000      8.37328000   
   103       C         48.38950000      87.51322000     28.09252000   
   104       C          0.96740000      23.93878000      8.37328000   
   105       C         48.38950000      23.93878000     26.60618000   
   106       C          0.96740000      87.51322000      9.85962000   
   107       C          0.96740000      87.51322000     26.60618000   
   108       C         48.38950000      23.93878000      9.85962000   
   109       C         25.64585000      79.66478000      9.85962000   
   110       C         23.71105000      31.78722000     26.60618000   
   111       C         23.71105000      31.78722000      9.85962000   
   112       C         25.64585000      79.66478000     26.60618000   
   113       C          0.84993000      56.69117000      8.25877000   
   114       C         48.50697000      54.76083000     28.20703000   
   115       C         48.50697000      54.76083000      8.25877000   
   116       C          0.84993000      56.69117000     28.20703000   
   117       C         23.82852000       0.96517000     28.20703000   
   118       C         25.52838000     110.48683000      8.25877000   
   119       C         25.52838000     110.48683000     28.20703000   
   120       C         23.82852000       0.96517000      8.25877000   
   121       C         25.52838000       0.96517000     26.49167000   
   122       C         23.82852000     110.48683000      9.97413000   
   123       C         23.82852000     110.48683000     26.49167000   
   124       C         25.52838000       0.96517000      9.97413000   
   125       C         48.50697000      56.69117000      9.97413000   
   126       C          0.84993000      54.76083000     26.49167000   
   127       C          0.84993000      54.76083000      9.97413000   
   128       C         48.50697000      56.69117000     26.49167000   
   129       C          2.26400000      58.68394000      6.81363000   
   130       C         47.09290000      52.76806000     29.65217000   
   131       C         47.09290000      52.76806000      6.81363000   
   132       C          2.26400000      58.68394000     29.65217000   
   133       C         22.41445000       2.95794000     29.65217000   
   134       C         26.94245000     108.49406000      6.81363000   
   135       C         26.94245000     108.49406000     29.65217000   
   136       C         22.41445000       2.95794000      6.81363000   
   137       C         26.94245000       2.95794000     25.04653000   
   138       C         22.41445000     108.49406000     11.41927000   
   139       C         22.41445000     108.49406000     25.04653000   
   140       C         26.94245000       2.95794000     11.41927000   
   141       C         47.09290000      58.68394000     11.41927000   
   142       C          2.26400000      52.76806000     25.04653000   
   143       C          2.26400000      52.76806000     11.41927000   
   144       C         47.09290000      58.68394000     25.04653000   
   145       C          2.98609000      59.74384000      6.06682000   
   146       C         46.37081000      51.70816000     30.39898000   
   147       C         46.37081000      51.70816000      6.06682000   
   148       C          2.98609000      59.74384000     30.39898000   
   149       C         21.69236000       4.01784000     30.39898000   
   150       C         27.66454000     107.43416000      6.06682000   
   151       C         27.66454000     107.43416000     30.39898000   
   152       C         21.69236000       4.01784000      6.06682000   
   153       C         27.66454000       4.01784000     24.29972000   
   154       C         21.69236000     107.43416000     12.16608000   
   155       C         21.69236000     107.43416000     24.29972000   
   156       C         27.66454000       4.01784000     12.16608000   
   157       C         46.37081000      59.74384000     12.16608000   
   158       C          2.98609000      51.70816000     24.29972000   
   159       C          2.98609000      51.70816000     12.16608000   
   160       C         46.37081000      59.74384000     24.29972000   
   161       C          4.65929000      64.00577000      3.69362000   
   162       C         44.69761000      47.44623000     32.77218000   
   163       C         44.69761000      47.44623000      3.69362000   
   164       C          4.65929000      64.00577000     32.77218000   
   165       C         20.01916000       8.27977000     32.77218000   
   166       C         29.33774000     103.17223000      3.69362000   
   167       C         29.33774000     103.17223000     32.77218000   
   168       C         20.01916000       8.27977000      3.69362000   
   169       C         29.33774000       8.27977000     21.92652000   
   170       C         20.01916000     103.17223000     14.53928000   
   171       C         20.01916000     103.17223000     21.92652000   
   172       C         29.33774000       8.27977000     14.53928000   
   173       C         44.69761000      64.00577000     14.53928000   
   174       C          4.65929000      47.44623000     21.92652000   
   175       C          4.65929000      47.44623000     14.53928000   
   176       C         44.69761000      64.00577000     21.92652000   
   177       C          5.48750000      64.96203000      2.92565000   
   178       C         43.86940000      46.48997000     33.54015000   
   179       C         43.86940000      46.48997000      2.92565000   
   180       C          5.48750000      64.96203000     33.54015000   
   181       C         19.19095000       9.23603000     33.54015000   
   182       C         30.16595000     102.21597000      2.92565000   
   183       C         30.16595000     102.21597000     33.54015000   
   184       C         19.19095000       9.23603000      2.92565000   
   185       C         30.16595000       9.23603000     21.15855000   
   186       C         19.19095000     102.21597000     15.30725000   
   187       C         19.19095000     102.21597000     21.15855000   
   188       C         30.16595000       9.23603000     15.30725000   
   189       C         43.86940000      64.96203000     15.30725000   
   190       C          5.48750000      46.48997000     21.15855000   
   191       C          5.48750000      46.48997000     15.30725000   
   192       C         43.86940000      64.96203000     21.15855000   
   193       C          6.98449000      66.85560000      1.47395000   
   194       C         42.37241000      44.59640000     34.99185000   
   195       C         42.37241000      44.59640000      1.47395000   
   196       C          6.98449000      66.85560000     34.99185000   
   197       C         17.69396000      11.12960000     34.99185000   
   198       C         31.66294000     100.32240000      1.47395000   
   199       C         31.66294000     100.32240000     34.99185000   
   200       C         17.69396000      11.12960000      1.47395000   
   201       C         31.66294000      11.12960000     19.70685000   
   202       C         17.69396000     100.32240000     16.75895000   
   203       C         17.69396000     100.32240000     19.70685000   
   204       C         31.66294000      11.12960000     16.75895000   
   205       C         42.37241000      66.85560000     16.75895000   
   206       C          6.98449000      44.59640000     19.70685000   
   207       C          6.98449000      44.59640000     16.75895000   
   208       C         42.37241000      66.85560000     19.70685000   
   209       C          8.39413000      68.89071000      1.41414000   
   210       C         40.96277000      42.56129000     35.05166000   
   211       C         40.96277000      42.56129000      1.41414000   
   212       C          8.39413000      68.89071000     35.05166000   
   213       C         16.28432000      13.16471000     35.05166000   
   214       C         33.07258000      98.28729000      1.41414000   
   215       C         33.07258000      98.28729000     35.05166000   
   216       C         16.28432000      13.16471000      1.41414000   
   217       C         33.07258000      13.16471000     19.64704000   
   218       C         16.28432000      98.28729000     16.81876000   
   219       C         16.28432000      98.28729000     19.64704000   
   220       C         33.07258000      13.16471000     16.81876000   
   221       C         40.96277000      68.89071000     16.81876000   
   222       C          8.39413000      42.56129000     19.64704000   
   223       C          8.39413000      42.56129000     16.81876000   
   224       C         40.96277000      68.89071000     19.64704000   
   225       C          7.75397000      67.85532000      0.70999000   
   226       C         41.60293000      43.59668000     35.75581000   
   227       C         41.60293000      43.59668000      0.70999000   
   228       C          7.75397000      67.85532000     35.75581000   
   229       C         16.92448000      12.12932000     35.75581000   
   230       C         32.43242000      99.32268000      0.70999000   
   231       C         32.43242000      99.32268000     35.75581000   
   232       C         16.92448000      12.12932000      0.70999000   
   233       C         32.43242000      12.12932000     18.94289000   
   234       C         16.92448000      99.32268000     17.52291000   
   235       C         16.92448000      99.32268000     18.94289000   
   236       C         32.43242000      12.12932000     17.52291000   
   237       C         41.60293000      67.85532000     17.52291000   
   238       C          7.75397000      43.59668000     18.94289000   
   239       C          7.75397000      43.59668000     17.52291000   
   240       C         41.60293000      67.85532000     18.94289000   
   241       C          9.01800000      69.91718000      0.70817000   
   242       C         40.33890000      41.53482000     35.75763000   
   243       C         40.33890000      41.53482000      0.70817000   
   244       C          9.01800000      69.91718000     35.75763000   
   245       C         15.66045000      14.19118000     35.75763000   
   246       C         33.69645000      97.26082000      0.70817000   
   247       C         33.69645000      97.26082000     35.75763000   
   248       C         15.66045000      14.19118000      0.70817000   
   249       C         33.69645000      14.19118000     18.94107000   
   250       C         15.66045000      97.26082000     17.52473000   
   251       C         15.66045000      97.26082000     18.94107000   
   252       C         33.69645000      14.19118000     17.52473000   
   253       C         40.33890000      69.91718000     17.52473000   
   254       C          9.01800000      41.53482000     18.94107000   
   255       C          9.01800000      41.53482000     17.52473000   
   256       C         40.33890000      69.91718000     18.94107000   
   257       C          8.86647000      72.32455000      0.70890000   
   258       C         40.49043000      39.12745000     35.75690000   
   259       C         40.49043000      39.12745000      0.70890000   
   260       C          8.86647000      72.32455000     35.75690000   
   261       C         15.81198000      16.59855000     35.75690000   
   262       C         33.54492000      94.85345000      0.70890000   
   263       C         33.54492000      94.85345000     35.75690000   
   264       C         15.81198000      16.59855000      0.70890000   
   265       C         33.54492000      16.59855000     18.94180000   
   266       C         15.81198000      94.85345000     17.52400000   
   267       C         15.81198000      94.85345000     18.94180000   
   268       C         33.54492000      16.59855000     17.52400000   
   269       C         40.49043000      72.32455000     17.52400000   
   270       C          8.86647000      39.12745000     18.94180000   
   271       C          8.86647000      39.12745000     17.52400000   
   272       C         40.49043000      72.32455000     18.94180000   
   273       C          8.27123000      73.36774000      1.41451000   
   274       C         41.08567000      38.08426000     35.05129000   
   275       C         41.08567000      38.08426000      1.41451000   
   276       C          8.27123000      73.36774000     35.05129000   
   277       C         16.40722000      17.64174000     35.05129000   
   278       C         32.94968000      93.81026000      1.41451000   
   279       C         32.94968000      93.81026000     35.05129000   
   280       C         16.40722000      17.64174000      1.41451000   
   281       C         32.94968000      17.64174000     19.64741000   
   282       C         16.40722000      93.81026000     16.81839000   
   283       C         16.40722000      93.81026000     19.64741000   
   284       C         32.94968000      17.64174000     16.81839000   
   285       C         41.08567000      73.36774000     16.81839000   
   286       C          8.27123000      38.08426000     19.64741000   
   287       C          8.27123000      38.08426000     16.81839000   
   288       C         41.08567000      73.36774000     19.64741000   
   289       C          7.67105000      74.42876000      0.71108000   
   290       C         41.68585000      37.02324000     35.75472000   
   291       C         41.68585000      37.02324000      0.71108000   
   292       C          7.67105000      74.42876000     35.75472000   
   293       C         17.00740000      18.70276000     35.75472000   
   294       C         32.34950000      92.74924000      0.71108000   
   295       C         32.34950000      92.74924000     35.75472000   
   296       C         17.00740000      18.70276000      0.71108000   
   297       C         32.34950000      18.70276000     18.94398000   
   298       C         17.00740000      92.74924000     17.52182000   
   299       C         17.00740000      92.74924000     18.94398000   
   300       C         32.34950000      18.70276000     17.52182000   
   301       C         41.68585000      74.42876000     17.52182000   
   302       C          7.67105000      37.02324000     18.94398000   
   303       C          7.67105000      37.02324000     17.52182000   
   304       C         41.68585000      74.42876000     18.94398000   
   305       C          7.14984000      75.57449000      1.48161000   
   306       C         42.20706000      35.87751000     34.98419000   
   307       C         42.20706000      35.87751000      1.48161000   
   308       C          7.14984000      75.57449000     34.98419000   
   309       C         17.52861000      19.84849000     34.98419000   
   310       C         31.82829000      91.60351000      1.48161000   
   311       C         31.82829000      91.60351000     34.98419000   
   312       C         17.52861000      19.84849000      1.48161000   
   313       C         31.82829000      19.84849000     19.71451000   
   314       C         17.52861000      91.60351000     16.75129000   
   315       C         17.52861000      91.60351000     19.71451000   
   316       C         31.82829000      19.84849000     16.75129000   
   317       C         42.20706000      75.57449000     16.75129000   
   318       C          7.14984000      35.87751000     19.71451000   
   319       C          7.14984000      35.87751000     16.75129000   
   320       C         42.20706000      75.57449000     19.71451000   
   321       C          6.17702000      77.77232000      2.94790000   
   322       C         43.17988000      33.67968000     33.51790000   
   323       C         43.17988000      33.67968000      2.94790000   
   324       C          6.17702000      77.77232000     33.51790000   
   325       C         18.50143000      22.04632000     33.51790000   
   326       C         30.85547000      89.40568000      2.94790000   
   327       C         30.85547000      89.40568000     33.51790000   
   328       C         18.50143000      22.04632000      2.94790000   
   329       C         30.85547000      22.04632000     21.18080000   
   330       C         18.50143000      89.40568000     15.28500000   
   331       C         18.50143000      89.40568000     21.18080000   
   332       C         30.85547000      22.04632000     15.28500000   
   333       C         43.17988000      77.77232000     15.28500000   
   334       C          6.17702000      33.67968000     21.18080000   
   335       C          6.17702000      33.67968000     15.28500000   
   336       C         43.17988000      77.77232000     21.18080000   
   337       C          5.67752000      78.92028000      3.72972000   
   338       C         43.67938000      32.53172000     32.73608000   
   339       C         43.67938000      32.53172000      3.72972000   
   340       C          5.67752000      78.92028000     32.73608000   
   341       C         19.00093000      23.19428000     32.73608000   
   342       C         30.35597000      88.25772000      3.72972000   
   343       C         30.35597000      88.25772000     32.73608000   
   344       C         19.00093000      23.19428000      3.72972000   
   345       C         30.35597000      23.19428000     21.96262000   
   346       C         19.00093000      88.25772000     14.50318000   
   347       C         19.00093000      88.25772000     21.96262000   
   348       C         30.35597000      23.19428000     14.50318000   
   349       C         43.67938000      78.92028000     14.50318000   
   350       C          5.67752000      32.53172000     21.96262000   
   351       C          5.67752000      32.53172000     14.50318000   
   352       C         43.67938000      78.92028000     21.96262000   
   353       C          3.87501000      80.41931000      4.33724000   
   354       C         45.48189000      31.03269000     32.12856000   
   355       C         45.48189000      31.03269000      4.33724000   
   356       C          3.87501000      80.41931000     32.12856000   
   357       C         20.80344000      24.69331000     32.12856000   
   358       C         28.55346000      86.75869000      4.33724000   
   359       C         28.55346000      86.75869000     32.12856000   
   360       C         20.80344000      24.69331000      4.33724000   
   361       C         28.55346000      24.69331000     22.57014000   
   362       C         20.80344000      86.75869000     13.89566000   
   363       C         20.80344000      86.75869000     22.57014000   
   364       C         28.55346000      24.69331000     13.89566000   
   365       C         45.48189000      80.41931000     13.89566000   
   366       C          3.87501000      31.03269000     22.57014000   
   367       C          3.87501000      31.03269000     13.89566000   
   368       C         45.48189000      80.41931000     22.57014000   
   369       C          2.63961000      82.51014000      5.77874000   
   370       C         46.71729000      28.94186000     30.68706000   
   371       C         46.71729000      28.94186000      5.77874000   
   372       C          2.63961000      82.51014000     30.68706000   
   373       C         22.03884000      26.78414000     30.68706000   
   374       C         27.31806000      84.66786000      5.77874000   
   375       C         27.31806000      84.66786000     30.68706000   
   376       C         22.03884000      26.78414000      5.77874000   
   377       C         27.31806000      26.78414000     24.01164000   
   378       C         22.03884000      84.66786000     12.45416000   
   379       C         22.03884000      84.66786000     24.01164000   
   380       C         27.31806000      26.78414000     12.45416000   
   381       C         46.71729000      82.51014000     12.45416000   
   382       C          2.63961000      28.94186000     24.01164000   
   383       C          2.63961000      28.94186000     12.45416000   
   384       C         46.71729000      82.51014000     24.01164000   
   385       C          1.98810000      83.59457000      6.56129000   
   386       C         47.36880000      27.85743000     29.90451000   
   387       C         47.36880000      27.85743000      6.56129000   
   388       C          1.98810000      83.59457000     29.90451000   
   389       C         22.69035000      27.86857000     29.90451000   
   390       C         26.66655000      83.58343000      6.56129000   
   391       C         26.66655000      83.58343000     29.90451000   
   392       C         22.69035000      27.86857000      6.56129000   
   393       C         26.66655000      27.86857000     24.79419000   
   394       C         22.69035000      83.58343000     11.67161000   
   395       C         22.69035000      83.58343000     24.79419000   
   396       C         26.66655000      27.86857000     11.67161000   
   397       C         47.36880000      83.59457000     11.67161000   
   398       C          1.98810000      27.85743000     24.79419000   
   399       C          1.98810000      27.85743000     11.67161000   
   400       C         47.36880000      83.59457000     24.79419000   
   401       C          0.74134000      85.59625000      8.15266000   
   402       C         48.61556000      25.85575000     28.31314000   
   403       C         48.61556000      25.85575000      8.15266000   
   404       C          0.74134000      85.59625000     28.31314000   
   405       C         23.93711000      29.87025000     28.31314000   
   406       C         25.41979000      81.58175000      8.15266000   
   407       C         25.41979000      81.58175000     28.31314000   
   408       C         23.93711000      29.87025000      8.15266000   
   409       C         25.41979000      29.87025000     26.38556000   
   410       C         23.93711000      81.58175000     10.08024000   
   411       C         23.93711000      81.58175000     26.38556000   
   412       C         25.41979000      29.87025000     10.08024000   
   413       C         48.61556000      85.59625000     10.08024000   
   414       C          0.74134000      25.85575000     26.38556000   
   415       C          0.74134000      25.85575000     10.08024000   
   416       C         48.61556000      85.59625000     26.38556000   
   417       C          9.63842000      71.16322000      1.33501000   
   418       C         39.71848000      40.28878000     35.13079000   
   419       C         39.71848000      40.28878000      1.33501000   
   420       C          9.63842000      71.16322000     35.13079000   
   421       C         15.04003000      15.43722000     35.13079000   
   422       C         34.31687000      96.01478000      1.33501000   
   423       C         34.31687000      96.01478000     35.13079000   
   424       C         15.04003000      15.43722000      1.33501000   
   425       C         34.31687000      15.43722000     19.56791000   
   426       C         15.04003000      96.01478000     16.89789000   
   427       C         15.04003000      96.01478000     19.56791000   
   428       C         34.31687000      15.43722000     16.89789000   
   429       C         39.71848000      71.16322000     16.89789000   
   430       C          9.63842000      40.28878000     19.56791000   
   431       C          9.63842000      40.28878000     16.89789000   
   432       C         39.71848000      71.16322000     19.56791000   
   433       C         19.68403000      10.53556000      2.72363000   
   434       C         29.67287000     100.91644000     33.74217000   
   435       C         29.67287000     100.91644000      2.72363000   
   436       C         19.68403000      10.53556000     33.74217000   
   437       C          4.99442000      66.26156000     33.74217000   
   438       C         44.36248000      45.19044000      2.72363000   
   439       C         44.36248000      45.19044000     33.74217000   
   440       C          4.99442000      66.26156000      2.72363000   
   441       C         44.36248000      66.26156000     20.95653000   
   442       C          4.99442000      45.19044000     15.50927000   
   443       C          4.99442000      45.19044000     20.95653000   
   444       C         44.36248000      66.26156000     15.50927000   
   445       C         29.67287000      10.53556000     15.50927000   
   446       C         19.68403000     100.91644000     20.95653000   
   447       C         19.68403000     100.91644000     15.50927000   
   448       C         29.67287000      10.53556000     20.95653000   
   449       C         18.94170000      11.47398000      2.00562000   
   450       C         30.41520000      99.97802000     34.46018000   
   451       C         30.41520000      99.97802000      2.00562000   
   452       C         18.94170000      11.47398000     34.46018000   
   453       C          5.73675000      67.19998000     34.46018000   
   454       C         43.62015000      44.25202000      2.00562000   
   455       C         43.62015000      44.25202000     34.46018000   
   456       C          5.73675000      67.19998000      2.00562000   
   457       C         43.62015000      67.19998000     20.23852000   
   458       C          5.73675000      44.25202000     16.22728000   
   459       C          5.73675000      44.25202000     20.23852000   
   460       C         43.62015000      67.19998000     16.22728000   
   461       C         30.41520000      11.47398000     16.22728000   
   462       C         18.94170000      99.97802000     20.23852000   
   463       C         18.94170000      99.97802000     16.22728000   
   464       C         30.41520000      11.47398000     20.23852000   
   465       C         17.18903000       9.83787000      1.67342000   
   466       C         32.16787000     101.61413000     34.79238000   
   467       C         32.16787000     101.61413000      1.67342000   
   468       C         17.18903000       9.83787000     34.79238000   
   469       C          7.48942000      65.56387000     34.79238000   
   470       C         41.86748000      45.88813000      1.67342000   
   471       C         41.86748000      45.88813000     34.79238000   
   472       C          7.48942000      65.56387000      1.67342000   
   473       C         41.86748000      65.56387000     19.90632000   
   474       C          7.48942000      45.88813000     16.55948000   
   475       C          7.48942000      45.88813000     19.90632000   
   476       C         41.86748000      65.56387000     16.55948000   
   477       C         32.16787000       9.83787000     16.55948000   
   478       C         17.18903000     101.61413000     19.90632000   
   479       C         17.18903000     101.61413000     16.55948000   
   480       C         32.16787000       9.83787000     19.90632000   
   481       C         17.92988000       8.89164000      2.39143000   
   482       C         31.42702000     102.56036000     34.07437000   
   483       C         31.42702000     102.56036000      2.39143000   
   484       C         17.92988000       8.89164000     34.07437000   
   485       C          6.74857000      64.61764000     34.07437000   
   486       C         42.60833000      46.83436000      2.39143000   
   487       C         42.60833000      46.83436000     34.07437000   
   488       C          6.74857000      64.61764000      2.39143000   
   489       C         42.60833000      64.61764000     20.62433000   
   490       C          6.74857000      46.83436000     15.84147000   
   491       C          6.74857000      46.83436000     20.62433000   
   492       C         42.60833000      64.61764000     15.84147000   
   493       C         31.42702000       8.89164000     15.84147000   
   494       C         17.92988000     102.56036000     20.62433000   
   495       C         17.92988000     102.56036000     15.84147000   
   496       C         31.42702000       8.89164000     20.62433000   
   497       C          7.88082000      16.33329000      2.33235000   
   498       C         41.47608000      95.11871000     34.13345000   
   499       C         41.47608000      95.11871000      2.33235000   
   500       C          7.88082000      16.33329000     34.13345000   
   501       C         16.79763000      72.05929000     34.13345000   
   502       C         32.55927000      39.39271000      2.33235000   
   503       C         32.55927000      39.39271000     34.13345000   
   504       C         16.79763000      72.05929000      2.33235000   
   505       C         32.55927000      72.05929000     20.56525000   
   506       C         16.79763000      39.39271000     15.90055000   
   507       C         16.79763000      39.39271000     20.56525000   
   508       C         32.55927000      72.05929000     15.90055000   
   509       C         41.47608000      16.33329000     15.90055000   
   510       C          7.88082000      95.11871000     20.56525000   
   511       C          7.88082000      95.11871000     15.90055000   
   512       C         41.47608000      16.33329000     20.56525000   
   513       C          8.98493000      15.83176000      1.63257000   
   514       C         40.37197000      95.62024000     34.83323000   
   515       C         40.37197000      95.62024000      1.63257000   
   516       C          8.98493000      15.83176000     34.83323000   
   517       C         15.69352000      71.55776000     34.83323000   
   518       C         33.66338000      39.89424000      1.63257000   
   519       C         33.66338000      39.89424000     34.83323000   
   520       C         15.69352000      71.55776000      1.63257000   
   521       C         33.66338000      71.55776000     19.86547000   
   522       C         15.69352000      39.89424000     16.60033000   
   523       C         15.69352000      39.89424000     19.86547000   
   524       C         33.66338000      71.55776000     16.60033000   
   525       C         40.37197000      15.83176000     16.60033000   
   526       C          8.98493000      95.62024000     19.86547000   
   527       C          8.98493000      95.62024000     16.60033000   
   528       C         40.37197000      15.83176000     19.86547000   
   529       C         10.19269000      17.88582000      2.05594000   
   530       C         39.16421000      93.56618000     34.40986000   
   531       C         39.16421000      93.56618000      2.05594000   
   532       C         10.19269000      17.88582000     34.40986000   
   533       C         14.48576000      73.61182000     34.40986000   
   534       C         34.87114000      37.84018000      2.05594000   
   535       C         34.87114000      37.84018000     34.40986000   
   536       C         14.48576000      73.61182000      2.05594000   
   537       C         34.87114000      73.61182000     20.28884000   
   538       C         14.48576000      37.84018000     16.17696000   
   539       C         14.48576000      37.84018000     20.28884000   
   540       C         34.87114000      73.61182000     16.17696000   
   541       C         39.16421000      17.88582000     16.17696000   
   542       C         10.19269000      93.56618000     20.28884000   
   543       C         10.19269000      93.56618000     16.17696000   
   544       C         39.16421000      17.88582000     20.28884000   
   545       C          9.09993000      18.38512000      2.76593000   
   546       C         40.25697000      93.06688000     33.69987000   
   547       C         40.25697000      93.06688000      2.76593000   
   548       C          9.09993000      18.38512000     33.69987000   
   549       C         15.57852000      74.11112000     33.69987000   
   550       C         33.77838000      37.34088000      2.76593000   
   551       C         33.77838000      37.34088000     33.69987000   
   552       C         15.57852000      74.11112000      2.76593000   
   553       C         33.77838000      74.11112000     20.99883000   
   554       C         15.57852000      37.34088000     15.46697000   
   555       C         15.57852000      37.34088000     20.99883000   
   556       C         33.77838000      74.11112000     15.46697000   
   557       C         40.25697000      18.38512000     15.46697000   
   558       C          9.09993000      93.06688000     20.99883000   
   559       C          9.09993000      93.06688000     15.46697000   
   560       C         40.25697000      18.38512000     20.99883000   
   561       C          0.94420000      23.75934000      6.97117000   
   562       C         48.41270000      87.69266000     29.49463000   
   563       C         48.41270000      87.69266000      6.97117000   
   564       C          0.94420000      23.75934000     29.49463000   
   565       C         23.73425000      79.48534000     29.49463000   
   566       C         25.62265000      31.96666000      6.97117000   
   567       C         25.62265000      31.96666000     29.49463000   
   568       C         23.73425000      79.48534000      6.97117000   
   569       C         25.62265000      79.48534000     25.20407000   
   570       C         23.73425000      31.96666000     11.26173000   
   571       C         23.73425000      31.96666000     25.20407000   
   572       C         25.62265000      79.48534000     11.26173000   
   573       C         48.41270000      23.75934000     11.26173000   
   574       C          0.94420000      87.69266000     25.20407000   
   575       C          0.94420000      87.69266000     11.26173000   
   576       C         48.41270000      23.75934000     25.20407000   
   577       C          1.85533000      22.90673000      6.34213000   
   578       C         47.50157000      88.54527000     30.12367000   
   579       C         47.50157000      88.54527000      6.34213000   
   580       C          1.85533000      22.90673000     30.12367000   
   581       C         22.82312000      78.63273000     30.12367000   
   582       C         26.53378000      32.81927000      6.34213000   
   583       C         26.53378000      32.81927000     30.12367000   
   584       C         22.82312000      78.63273000      6.34213000   
   585       C         26.53378000      78.63273000     24.57503000   
   586       C         22.82312000      32.81927000     11.89077000   
   587       C         22.82312000      32.81927000     24.57503000   
   588       C         26.53378000      78.63273000     11.89077000   
   589       C         47.50157000      22.90673000     11.89077000   
   590       C          1.85533000      88.54527000     24.57503000   
   591       C          1.85533000      88.54527000     11.89077000   
   592       C         47.50157000      22.90673000     24.57503000   
   593       C          2.79508000      22.18786000      7.09442000   
   594       C         46.56182000      89.26414000     29.37138000   
   595       C         46.56182000      89.26414000      7.09442000   
   596       C          2.79508000      22.18786000     29.37138000   
   597       C         21.88337000      77.91386000     29.37138000   
   598       C         27.47353000      33.53814000      7.09442000   
   599       C         27.47353000      33.53814000     29.37138000   
   600       C         21.88337000      77.91386000      7.09442000   
   601       C         27.47353000      77.91386000     25.32732000   
   602       C         21.88337000      33.53814000     11.13848000   
   603       C         21.88337000      33.53814000     25.32732000   
   604       C         27.47353000      77.91386000     11.13848000   
   605       C         46.56182000      22.18786000     11.13848000   
   606       C          2.79508000      89.26414000     25.32732000   
   607       C          2.79508000      89.26414000     11.13848000   
   608       C         46.56182000      22.18786000     25.32732000   
   609       C          2.76053000      22.27925000      8.49252000   
   610       C         46.59637000      89.17275000     27.97328000   
   611       C         46.59637000      89.17275000      8.49252000   
   612       C          2.76053000      22.27925000     27.97328000   
   613       C         21.91792000      78.00525000     27.97328000   
   614       C         27.43898000      33.44675000      8.49252000   
   615       C         27.43898000      33.44675000     27.97328000   
   616       C         21.91792000      78.00525000      8.49252000   
   617       C         27.43898000      78.00525000     26.72542000   
   618       C         21.91792000      33.44675000      9.74038000   
   619       C         21.91792000      33.44675000     26.72542000   
   620       C         27.43898000      78.00525000      9.74038000   
   621       C         46.59637000      22.27925000      9.74038000   
   622       C          2.76053000      89.17275000     26.72542000   
   623       C          2.76053000      89.17275000      9.74038000   
   624       C         46.59637000      22.27925000     26.72542000   
   625       C          1.84348000      23.12183000      9.12301000   
   626       C         47.51342000      88.33017000     27.34279000   
   627       C         47.51342000      88.33017000      9.12301000   
   628       C          1.84348000      23.12183000     27.34279000   
   629       C         22.83497000      78.84783000     27.34279000   
   630       C         26.52193000      32.60417000      9.12301000   
   631       C         26.52193000      32.60417000     27.34279000   
   632       C         22.83497000      78.84783000      9.12301000   
   633       C         26.52193000      78.84783000     27.35591000   
   634       C         22.83497000      32.60417000      9.10989000   
   635       C         22.83497000      32.60417000     27.35591000   
   636       C         26.52193000      78.84783000      9.10989000   
   637       C         47.51342000      23.12183000      9.10989000   
   638       C          1.84348000      88.33017000     27.35591000   
   639       C          1.84348000      88.33017000      9.10989000   
   640       C         47.51342000      23.12183000     27.35591000   
   641       C          3.83010000      21.37315000      6.41835000   
   642       C         45.52680000      90.07885000     30.04745000   
   643       C         45.52680000      90.07885000      6.41835000   
   644       C          3.83010000      21.37315000     30.04745000   
   645       C         20.84835000      77.09915000     30.04745000   
   646       C         28.50855000      34.35285000      6.41835000   
   647       C         28.50855000      34.35285000     30.04745000   
   648       C         20.84835000      77.09915000      6.41835000   
   649       C         28.50855000      77.09915000     24.65125000   
   650       C         20.84835000      34.35285000     11.81455000   
   651       C         20.84835000      34.35285000     24.65125000   
   652       C         28.50855000      77.09915000     11.81455000   
   653       C         45.52680000      21.37315000     11.81455000   
   654       C          3.83010000      90.07885000     24.65125000   
   655       C          3.83010000      90.07885000     11.81455000   
   656       C         45.52680000      21.37315000     24.65125000   
   657       C          0.32970000      57.23395000      7.06343000   
   658       C         49.02720000      54.21805000     29.40237000   
   659       C         49.02720000      54.21805000      7.06343000   
   660       C          0.32970000      57.23395000     29.40237000   
   661       C         24.34875000       1.50795000     29.40237000   
   662       C         25.00815000     109.94405000      7.06343000   
   663       C         25.00815000     109.94405000     29.40237000   
   664       C         24.34875000       1.50795000      7.06343000   
   665       C         25.00815000       1.50795000     25.29633000   
   666       C         24.34875000     109.94405000     11.16947000   
   667       C         24.34875000     109.94405000     25.29633000   
   668       C         25.00815000       1.50795000     11.16947000   
   669       C         49.02720000      57.23395000     11.16947000   
   670       C          0.32970000      54.21805000     25.29633000   
   671       C          0.32970000      54.21805000     11.16947000   
   672       C         49.02720000      57.23395000     25.29633000   
   673       C          1.03600000      58.19801000      6.34250000   
   674       C         48.32090000      53.25399000     30.12330000   
   675       C         48.32090000      53.25399000      6.34250000   
   676       C          1.03600000      58.19801000     30.12330000   
   677       C         23.64245000       2.47201000     30.12330000   
   678       C         25.71445000     108.97999000      6.34250000   
   679       C         25.71445000     108.97999000     30.12330000   
   680       C         23.64245000       2.47201000      6.34250000   
   681       C         25.71445000       2.47201000     24.57540000   
   682       C         23.64245000     108.97999000     11.89040000   
   683       C         23.64245000     108.97999000     24.57540000   
   684       C         25.71445000       2.47201000     11.89040000   
   685       C         48.32090000      58.19801000     11.89040000   
   686       C          1.03600000      53.25399000     24.57540000   
   687       C          1.03600000      53.25399000     11.89040000   
   688       C         48.32090000      58.19801000     24.57540000   
   689       C          2.76399000      58.19689000      8.03050000   
   690       C         46.59291000      53.25511000     28.43530000   
   691       C         46.59291000      53.25511000      8.03050000   
   692       C          2.76399000      58.19689000     28.43530000   
   693       C         21.91446000       2.47089000     28.43530000   
   694       C         27.44244000     108.98111000      8.03050000   
   695       C         27.44244000     108.98111000     28.43530000   
   696       C         21.91446000       2.47089000      8.03050000   
   697       C         27.44244000       2.47089000     26.26340000   
   698       C         21.91446000     108.98111000     10.20240000   
   699       C         21.91446000     108.98111000     26.26340000   
   700       C         27.44244000       2.47089000     10.20240000   
   701       C         46.59291000      58.19689000     10.20240000   
   702       C          2.76399000      53.25511000     26.26340000   
   703       C          2.76399000      53.25511000     10.20240000   
   704       C         46.59291000      58.19689000     26.26340000   
   705       C          2.05818000      57.23172000      8.75289000   
   706       C         47.29872000      54.22028000     27.71291000   
   707       C         47.29872000      54.22028000      8.75289000   
   708       C          2.05818000      57.23172000     27.71291000   
   709       C         22.62027000       1.50572000     27.71291000   
   710       C         26.73663000     109.94628000      8.75289000   
   711       C         26.73663000     109.94628000     27.71291000   
   712       C         22.62027000       1.50572000      8.75289000   
   713       C         26.73663000       1.50572000     26.98579000   
   714       C         22.62027000     109.94628000      9.48001000   
   715       C         22.62027000     109.94628000     26.98579000   
   716       C         26.73663000       1.50572000      9.48001000   
   717       C         47.29872000      57.23172000      9.48001000   
   718       C          2.05818000      54.22028000     26.98579000   
   719       C          2.05818000      54.22028000      9.48001000   
   720       C         47.29872000      57.23172000     26.98579000   
   721       C          4.37105000      59.65468000      5.83052000   
   722       C         44.98585000      51.79732000     30.63528000   
   723       C         44.98585000      51.79732000      5.83052000   
   724       C          4.37105000      59.65468000     30.63528000   
   725       C         20.30740000       3.92868000     30.63528000   
   726       C         29.04950000     107.52332000      5.83052000   
   727       C         29.04950000     107.52332000     30.63528000   
   728       C         20.30740000       3.92868000      5.83052000   
   729       C         29.04950000       3.92868000     24.06342000   
   730       C         20.30740000     107.52332000     12.40238000   
   731       C         20.30740000     107.52332000     24.06342000   
   732       C         29.04950000       3.92868000     12.40238000   
   733       C         44.98585000      59.65468000     12.40238000   
   734       C          4.37105000      51.79732000     24.06342000   
   735       C          4.37105000      51.79732000     12.40238000   
   736       C         44.98585000      59.65468000     24.06342000   
   737       C          5.03292000      60.66778000      5.12746000   
   738       C         44.32398000      50.78422000     31.33834000   
   739       C         44.32398000      50.78422000      5.12746000   
   740       C          5.03292000      60.66778000     31.33834000   
   741       C         19.64553000       4.94178000     31.33834000   
   742       C         29.71137000     106.51022000      5.12746000   
   743       C         29.71137000     106.51022000     31.33834000   
   744       C         19.64553000       4.94178000      5.12746000   
   745       C         29.71137000       4.94178000     23.36036000   
   746       C         19.64553000     106.51022000     13.10544000   
   747       C         19.64553000     106.51022000     23.36036000   
   748       C         29.71137000       4.94178000     13.10544000   
   749       C         44.32398000      60.66778000     13.10544000   
   750       C          5.03292000      50.78422000     23.36036000   
   751       C          5.03292000      50.78422000     13.10544000   
   752       C         44.32398000      60.66778000     23.36036000   
   753       C          4.33551000      61.78676000      4.65778000   
   754       C         45.02139000      49.66524000     31.80802000   
   755       C         45.02139000      49.66524000      4.65778000   
   756       C          4.33551000      61.78676000     31.80802000   
   757       C         20.34294000       6.06076000     31.80802000   
   758       C         29.01396000     105.39124000      4.65778000   
   759       C         29.01396000     105.39124000     31.80802000   
   760       C         20.34294000       6.06076000      4.65778000   
   761       C         29.01396000       6.06076000     22.89068000   
   762       C         20.34294000     105.39124000     13.57512000   
   763       C         20.34294000     105.39124000     22.89068000   
   764       C         29.01396000       6.06076000     13.57512000   
   765       C         45.02139000      61.78676000     13.57512000   
   766       C          4.33551000      49.66524000     22.89068000   
   767       C          4.33551000      49.66524000     13.57512000   
   768       C         45.02139000      61.78676000     22.89068000   
   769       C          2.94611000      61.86589000      4.87438000   
   770       C         46.41079000      49.58611000     31.59142000   
   771       C         46.41079000      49.58611000      4.87438000   
   772       C          2.94611000      61.86589000     31.59142000   
   773       C         21.73234000       6.13989000     31.59142000   
   774       C         27.62456000     105.31211000      4.87438000   
   775       C         27.62456000     105.31211000     31.59142000   
   776       C         21.73234000       6.13989000      4.87438000   
   777       C         27.62456000       6.13989000     23.10728000   
   778       C         21.73234000     105.31211000     13.35852000   
   779       C         21.73234000     105.31211000     23.10728000   
   780       C         27.62456000       6.13989000     13.35852000   
   781       C         46.41079000      61.86589000     13.35852000   
   782       C          2.94611000      49.58611000     23.10728000   
   783       C          2.94611000      49.58611000     13.35852000   
   784       C         46.41079000      61.86589000     23.10728000   
   785       C          2.28325000      60.85614000      5.57526000   
   786       C         47.07365000      50.59586000     30.89054000   
   787       C         47.07365000      50.59586000      5.57526000   
   788       C          2.28325000      60.85614000     30.89054000   
   789       C         22.39520000       5.13014000     30.89054000   
   790       C         26.96170000     106.32186000      5.57526000   
   791       C         26.96170000     106.32186000     30.89054000   
   792       C         22.39520000       5.13014000      5.57526000   
   793       C         26.96170000       5.13014000     23.80816000   
   794       C         22.39520000     106.32186000     12.65764000   
   795       C         22.39520000     106.32186000     23.80816000   
   796       C         26.96170000       5.13014000     12.65764000   
   797       C         47.07365000      60.85614000     12.65764000   
   798       C          2.28325000      50.59586000     23.80816000   
   799       C          2.28325000      50.59586000     12.65764000   
   800       C         47.07365000      60.85614000     23.80816000   
   801       C         41.79542000      33.90035000      2.83157000   
   802       C          7.56148000      77.55165000     33.63423000   
   803       C          7.56148000      77.55165000      2.83157000   
   804       C         41.79542000      33.90035000     33.63423000   
   805       C         32.23993000      89.62635000     33.63423000   
   806       C         17.11697000      21.82565000      2.83157000   
   807       C         17.11697000      21.82565000     33.63423000   
   808       C         32.23993000      89.62635000      2.83157000   
   809       C         17.11697000      89.62635000     21.06447000   
   810       C         32.23993000      21.82565000     15.40133000   
   811       C         32.23993000      21.82565000     21.06447000   
   812       C         17.11697000      89.62635000     15.40133000   
   813       C          7.56148000      33.90035000     15.40133000   
   814       C         41.79542000      77.55165000     21.06447000   
   815       C         41.79542000      77.55165000     15.40133000   
   816       C          7.56148000      33.90035000     21.06447000   
   817       C         41.31518000      34.98924000      2.09715000   
   818       C          8.04172000      76.46276000     34.36865000   
   819       C          8.04172000      76.46276000      2.09715000   
   820       C         41.31518000      34.98924000     34.36865000   
   821       C         32.72017000      90.71524000     34.36865000   
   822       C         16.63673000      20.73676000      2.09715000   
   823       C         16.63673000      20.73676000     34.36865000   
   824       C         32.72017000      90.71524000      2.09715000   
   825       C         16.63673000      90.71524000     20.33005000   
   826       C         32.72017000      20.73676000     16.13575000   
   827       C         32.72017000      20.73676000     20.33005000   
   828       C         16.63673000      90.71524000     16.13575000   
   829       C          8.04172000      34.98924000     16.13575000   
   830       C         41.31518000      76.46276000     20.33005000   
   831       C         41.31518000      76.46276000     16.13575000   
   832       C          8.04172000      34.98924000     20.33005000   
   833       C         43.58658000      35.67913000      1.62273000   
   834       C          5.77032000      75.77287000     34.84307000   
   835       C          5.77032000      75.77287000      1.62273000   
   836       C         43.58658000      35.67913000     34.84307000   
   837       C         30.44877000      91.40513000     34.84307000   
   838       C         18.90813000      20.04687000      1.62273000   
   839       C         18.90813000      20.04687000     34.84307000   
   840       C         30.44877000      91.40513000      1.62273000   
   841       C         18.90813000      91.40513000     19.85563000   
   842       C         30.44877000      20.04687000     16.61017000   
   843       C         30.44877000      20.04687000     19.85563000   
   844       C         18.90813000      91.40513000     16.61017000   
   845       C          5.77032000      35.67913000     16.61017000   
   846       C         43.58658000      75.77287000     19.85563000   
   847       C         43.58658000      75.77287000     16.61017000   
   848       C          5.77032000      35.67913000     19.85563000   
   849       C         44.07078000      34.58021000      2.33636000   
   850       C          5.28612000      76.87179000     34.12944000   
   851       C          5.28612000      76.87179000      2.33636000   
   852       C         44.07078000      34.58021000     34.12944000   
   853       C         29.96457000      90.30621000     34.12944000   
   854       C         19.39233000      21.14579000      2.33636000   
   855       C         19.39233000      21.14579000     34.12944000   
   856       C         29.96457000      90.30621000      2.33636000   
   857       C         19.39233000      90.30621000     20.56926000   
   858       C         29.96457000      21.14579000     15.89654000   
   859       C         29.96457000      21.14579000     20.56926000   
   860       C         19.39233000      90.30621000     15.89654000   
   861       C          5.28612000      34.58021000     15.89654000   
   862       C         44.07078000      76.87179000     20.56926000   
   863       C         44.07078000      76.87179000     15.89654000   
   864       C          5.28612000      34.58021000     20.56926000   
   865       C          0.01678000      26.70836000      7.31832000   
   866       C         49.34012000      84.74364000     29.14748000   
   867       C         49.34012000      84.74364000      7.31832000   
   868       C          0.01678000      26.70836000     29.14748000   
   869       C         24.66167000      82.43436000     29.14748000   
   870       C         24.69523000      29.01764000      7.31832000   
   871       C         24.69523000      29.01764000     29.14748000   
   872       C         24.66167000      82.43436000      7.31832000   
   873       C         24.69523000      82.43436000     25.55122000   
   874       C         24.66167000      29.01764000     10.91458000   
   875       C         24.66167000      29.01764000     25.55122000   
   876       C         24.69523000      82.43436000     10.91458000   
   877       C         49.34012000      26.70836000     10.91458000   
   878       C          0.01678000      84.74364000     25.55122000   
   879       C          0.01678000      84.74364000     10.91458000   
   880       C         49.34012000      26.70836000     25.55122000   
   881       C         48.76116000      27.68913000      6.53431000   
   882       C          0.59574000      83.76287000     29.93149000   
   883       C          0.59574000      83.76287000      6.53431000   
   884       C         48.76116000      27.68913000     29.93149000   
   885       C         25.27419000      83.41513000     29.93149000   
   886       C         24.08271000      28.03687000      6.53431000   
   887       C         24.08271000      28.03687000     29.93149000   
   888       C         25.27419000      83.41513000      6.53431000   
   889       C         24.08271000      83.41513000     24.76721000   
   890       C         25.27419000      28.03687000     11.69859000   
   891       C         25.27419000      28.03687000     24.76721000   
   892       C         24.08271000      83.41513000     11.69859000   
   893       C          0.59574000      27.68913000     11.69859000   
   894       C         48.76116000      83.76287000     24.76721000   
   895       C         48.76116000      83.76287000     11.69859000   
   896       C          0.59574000      27.68913000     24.76721000   
   897       C         46.60575000      27.03045000      7.40000000   
   898       C          2.75115000      84.42155000     29.06580000   
   899       C          2.75115000      84.42155000      7.40000000   
   900       C         46.60575000      27.03045000     29.06580000   
   901       C         27.42960000      82.75645000     29.06580000   
   902       C         21.92730000      28.69555000      7.40000000   
   903       C         21.92730000      28.69555000     29.06580000   
   904       C         27.42960000      82.75645000      7.40000000   
   905       C         21.92730000      82.75645000     25.63290000   
   906       C         27.42960000      28.69555000     10.83290000   
   907       C         27.42960000      28.69555000     25.63290000   
   908       C         21.92730000      82.75645000     10.83290000   
   909       C          2.75115000      27.03045000     10.83290000   
   910       C         46.60575000      84.42155000     25.63290000   
   911       C         46.60575000      84.42155000     10.83290000   
   912       C          2.75115000      27.03045000     25.63290000   
   913       C         47.21777000      26.06416000      8.20043000   
   914       C          2.13913000      85.38784000     28.26537000   
   915       C          2.13913000      85.38784000      8.20043000   
   916       C         47.21777000      26.06416000     28.26537000   
   917       C         26.81758000      81.79016000     28.26537000   
   918       C         22.53932000      29.66184000      8.20043000   
   919       C         22.53932000      29.66184000     28.26537000   
   920       C         26.81758000      81.79016000      8.20043000   
   921       C         22.53932000      81.79016000     26.43333000   
   922       C         26.81758000      29.66184000     10.03247000   
   923       C         26.81758000      29.66184000     26.43333000   
   924       C         22.53932000      81.79016000     10.03247000   
   925       C          2.13913000      26.06416000     10.03247000   
   926       C         47.21777000      85.38784000     26.43333000   
   927       C         47.21777000      85.38784000     10.03247000   
   928       C          2.13913000      26.06416000     26.43333000   
   929       C         45.70548000      29.71979000      6.36985000   
   930       C          3.65142000      81.73221000     30.09595000   
   931       C          3.65142000      81.73221000      6.36985000   
   932       C         45.70548000      29.71979000     30.09595000   
   933       C         28.32987000      85.44579000     30.09595000   
   934       C         21.02703000      26.00621000      6.36985000   
   935       C         21.02703000      26.00621000     30.09595000   
   936       C         28.32987000      85.44579000      6.36985000   
   937       C         21.02703000      85.44579000     24.60275000   
   938       C         28.32987000      26.00621000     11.86305000   
   939       C         28.32987000      26.00621000     24.60275000   
   940       C         21.02703000      85.44579000     11.86305000   
   941       C          3.65142000      29.71979000     11.86305000   
   942       C         45.70548000      81.73221000     24.60275000   
   943       C         45.70548000      81.73221000     11.86305000   
   944       C          3.65142000      29.71979000     24.60275000   
   945       C         45.09148000      30.75184000      5.65767000   
   946       C          4.26542000      80.70016000     30.80813000   
   947       C          4.26542000      80.70016000      5.65767000   
   948       C         45.09148000      30.75184000     30.80813000   
   949       C         28.94387000      86.47784000     30.80813000   
   950       C         20.41303000      24.97416000      5.65767000   
   951       C         20.41303000      24.97416000     30.80813000   
   952       C         28.94387000      86.47784000      5.65767000   
   953       C         20.41303000      86.47784000     23.89057000   
   954       C         28.94387000      24.97416000     12.57523000   
   955       C         28.94387000      24.97416000     23.89057000   
   956       C         20.41303000      86.47784000     12.57523000   
   957       C          4.26542000      30.75184000     12.57523000   
   958       C         45.09148000      80.70016000     23.89057000   
   959       C         45.09148000      80.70016000     12.57523000   
   960       C          4.26542000      30.75184000     23.89057000   
   961       C         46.50111000      30.27482000      3.75087000   
   962       C          2.85579000      81.17718000     32.71493000   
   963       C          2.85579000      81.17718000      3.75087000   
   964       C         46.50111000      30.27482000     32.71493000   
   965       C         27.53424000      86.00082000     32.71493000   
   966       C         21.82266000      25.45118000      3.75087000   
   967       C         21.82266000      25.45118000     32.71493000   
   968       C         27.53424000      86.00082000      3.75087000   
   969       C         21.82266000      86.00082000     21.98377000   
   970       C         27.53424000      25.45118000     14.48203000   
   971       C         27.53424000      25.45118000     21.98377000   
   972       C         21.82266000      86.00082000     14.48203000   
   973       C          2.85579000      30.27482000     14.48203000   
   974       C         46.50111000      81.17718000     21.98377000   
   975       C         46.50111000      81.17718000     14.48203000   
   976       C          2.85579000      30.27482000     21.98377000   
   977       C         47.10573000      29.22606000      4.45357000   
   978       C          2.25117000      82.22594000     32.01223000   
   979       C          2.25117000      82.22594000      4.45357000   
   980       C         47.10573000      29.22606000     32.01223000   
   981       C         26.92962000      84.95206000     32.01223000   
   982       C         22.42728000      26.49994000      4.45357000   
   983       C         22.42728000      26.49994000     32.01223000   
   984       C         26.92962000      84.95206000      4.45357000   
   985       C         22.42728000      84.95206000     22.68647000   
   986       C         26.92962000      26.49994000     13.77933000   
   987       C         26.92962000      26.49994000     22.68647000   
   988       C         22.42728000      84.95206000     13.77933000   
   989       C          2.25117000      29.22606000     13.77933000   
   990       C         47.10573000      82.22594000     22.68647000   
   991       C         47.10573000      82.22594000     13.77933000   
   992       C          2.25117000      29.22606000     22.68647000   
   993       C         21.20718000      76.18970000      5.40934000   
   994       C         28.14972000      35.26230000     31.05646000   
   995       C         28.14972000      35.26230000      5.40934000   
   996       C         21.20718000      76.18970000     31.05646000   
   997       C          3.47127000      20.46370000     31.05646000   
   998       C         45.88563000      90.98830000      5.40934000   
   999       C         45.88563000      90.98830000     31.05646000   
  1000       C          3.47127000      20.46370000      5.40934000   
  1001       C         45.88563000      20.46370000     23.64224000   
  1002       C          3.47127000      90.98830000     12.82356000   
  1003       C          3.47127000      90.98830000     23.64224000   
  1004       C         45.88563000      20.46370000     12.82356000   
  1005       C         28.14972000      76.18970000     12.82356000   
  1006       C         21.20718000      35.26230000     23.64224000   
  1007       C         21.20718000      35.26230000     12.82356000   
  1008       C         28.14972000      76.18970000     23.64224000   
  1009       C         20.22596000      75.45969000      4.72998000   
  1010       C         29.13094000      35.99231000     31.73582000   
  1011       C         29.13094000      35.99231000      4.72998000   
  1012       C         20.22596000      75.45969000     31.73582000   
  1013       C          4.45249000      19.73369000     31.73582000   
  1014       C         44.90441000      91.71831000      4.72998000   
  1015       C         44.90441000      91.71831000     31.73582000   
  1016       C          4.45249000      19.73369000      4.72998000   
  1017       C         44.90441000      19.73369000     22.96288000   
  1018       C          4.45249000      91.71831000     13.50292000   
  1019       C          4.45249000      91.71831000     22.96288000   
  1020       C         44.90441000      19.73369000     13.50292000   
  1021       C         29.13094000      75.45969000     13.50292000   
  1022       C         20.22596000      35.99231000     22.96288000   
  1023       C         20.22596000      35.99231000     13.50292000   
  1024       C         29.13094000      75.45969000     22.96288000   
  1025       C         18.86569000      75.63467000      5.04760000   
  1026       C         30.49121000      35.81733000     31.41820000   
  1027       C         30.49121000      35.81733000      5.04760000   
  1028       C         18.86569000      75.63467000     31.41820000   
  1029       C          5.81276000      19.90867000     31.41820000   
  1030       C         43.54414000      91.54333000      5.04760000   
  1031       C         43.54414000      91.54333000     31.41820000   
  1032       C          5.81276000      19.90867000      5.04760000   
  1033       C         43.54414000      19.90867000     23.28050000   
  1034       C          5.81276000      91.54333000     13.18530000   
  1035       C          5.81276000      91.54333000     23.28050000   
  1036       C         43.54414000      19.90867000     13.18530000   
  1037       C         30.49121000      75.63467000     13.18530000   
  1038       C         18.86569000      35.81733000     23.28050000   
  1039       C         18.86569000      35.81733000     13.18530000   
  1040       C         30.49121000      75.63467000     23.28050000   
  1041       C         18.51032000      76.54635000      6.04712000   
  1042       C         30.84658000      34.90565000     30.41868000   
  1043       C         30.84658000      34.90565000      6.04712000   
  1044       C         18.51032000      76.54635000     30.41868000   
  1045       C          6.16813000      20.82035000     30.41868000   
  1046       C         43.18877000      90.63165000      6.04712000   
  1047       C         43.18877000      90.63165000     30.41868000   
  1048       C          6.16813000      20.82035000      6.04712000   
  1049       C         43.18877000      20.82035000     24.28002000   
  1050       C          6.16813000      90.63165000     12.18578000   
  1051       C          6.16813000      90.63165000     24.28002000   
  1052       C         43.18877000      20.82035000     12.18578000   
  1053       C         30.84658000      76.54635000     12.18578000   
  1054       C         18.51032000      34.90565000     24.28002000   
  1055       C         18.51032000      34.90565000     12.18578000   
  1056       C         30.84658000      76.54635000     24.28002000   
  1057       C         19.48808000      77.26856000      6.73596000   
  1058       C         29.86882000      34.18344000     29.72984000   
  1059       C         29.86882000      34.18344000      6.73596000   
  1060       C         19.48808000      77.26856000     29.72984000   
  1061       C          5.19037000      21.54256000     29.72984000   
  1062       C         44.16653000      89.90944000      6.73596000   
  1063       C         44.16653000      89.90944000     29.72984000   
  1064       C          5.19037000      21.54256000      6.73596000   
  1065       C         44.16653000      21.54256000     24.96886000   
  1066       C          5.19037000      89.90944000     11.49694000   
  1067       C          5.19037000      89.90944000     24.96886000   
  1068       C         44.16653000      21.54256000     11.49694000   
  1069       C         29.86882000      77.26856000     11.49694000   
  1070       C         19.48808000      34.18344000     24.96886000   
  1071       C         19.48808000      34.18344000     11.49694000   
  1072       C         29.86882000      77.26856000     24.96886000   
  1073       C         24.67845000      80.61769000      9.11645000   
  1074       C         24.67845000      30.83431000     27.34935000   
  1075       C         24.67845000      30.83431000      9.11645000   
  1076       C         24.67845000      80.61769000     27.34935000   
  1077       C          0.00000000      24.89169000     27.34935000   
  1078       C          0.00000000      86.56031000      9.11645000   
  1079       C          0.00000000      86.56031000     27.34935000   
  1080       C          0.00000000      24.89169000      9.11645000   
  1081       C          0.00000000      55.72600000      9.11645000   
  1082       C          0.00000000      55.72600000     27.34935000   
  1083       C         24.67845000       0.00000000     27.34935000   
  1084       C         24.67845000       0.00000000      9.11645000   
  1085       N         17.81291000      74.97487000      4.32703000   
  1086       N         31.54399000      36.47713000     32.13877000   
  1087       N         31.54399000      36.47713000      4.32703000   
  1088       N         17.81291000      74.97487000     32.13877000   
  1089       N          6.86554000      19.24887000     32.13877000   
  1090       N         42.49136000      92.20313000      4.32703000   
  1091       N         42.49136000      92.20313000     32.13877000   
[...]
 1070  C   1.18180   0.91219   0.90401   0.89666
 1071  C   1.18180   0.91219   0.90401   0.89666
 1072  C   1.18180   0.91219   0.90401   0.89666
 1073  C   1.18949   0.90182   0.88370   0.90065
 1074  C   1.18949   0.90182   0.88370   0.90065
 1075  C   1.18949   0.90182   0.88370   0.90065
 1076  C   1.18949   0.90182   0.88370   0.90065
 1077  C   1.18949   0.90182   0.88370   0.90065
 1078  C   1.18949   0.90182   0.88370   0.90065
 1079  C   1.18949   0.90182   0.88370   0.90065
 1080  C   1.18949   0.90182   0.88370   0.90065
 1081  C   1.18720   0.90440   0.88366   0.90319
 1082  C   1.18720   0.90440   0.88366   0.90319
 1083  C   1.18720   0.90440   0.88366   0.90319
 1084  C   1.18720   0.90440   0.88366   0.90319
 1085  N   1.69077   1.31548   1.11316   1.06524
 1086  N   1.69077   1.31548   1.11316   1.06524
 1087  N   1.69077   1.31548   1.11316   1.06524
 1088  N   1.69077   1.31548   1.11316   1.06524
 1089  N   1.69077   1.31548   1.11316   1.06524
 1090  N   1.69077   1.31548   1.11316   1.06524
 1091  N   1.69077   1.31548   1.11316   1.06524
 1092  N   1.69077   1.31548   1.11316   1.06524
 1093  N   1.69077   1.31548   1.11316   1.06524
 1094  N   1.69077   1.31548   1.11316   1.06524
 1095  N   1.69077   1.31548   1.11316   1.06524
 1096  N   1.69077   1.31548   1.11316   1.06524
 1097  N   1.69077   1.31548   1.11316   1.06524
 1098  N   1.69077   1.31548   1.11316   1.06524
 1099  N   1.69077   1.31548   1.11316   1.06524
 1100  N   1.69077   1.31548   1.11316   1.06524
 1101  N   1.69482   1.33474   1.01823   1.11226
 1102  N   1.69482   1.33474   1.01823   1.11226
 1103  N   1.69482   1.33474   1.01823   1.11226
 1104  N   1.69482   1.33474   1.01823   1.11226
 1105  N   1.69482   1.33474   1.01823   1.11226
 1106  N   1.69482   1.33474   1.01823   1.11226
 1107  N   1.69482   1.33474   1.01823   1.11226
 1108  N   1.69482   1.33474   1.01823   1.11226
 1109  N   1.69482   1.33474   1.01823   1.11226
 1110  N   1.69482   1.33474   1.01823   1.11226
 1111  N   1.69482   1.33474   1.01823   1.11226
 1112  N   1.69482   1.33474   1.01823   1.11226
 1113  N   1.69482   1.33474   1.01823   1.11226
 1114  N   1.69482   1.33474   1.01823   1.11226
 1115  N   1.69482   1.33474   1.01823   1.11226
 1116  N   1.69482   1.33474   1.01823   1.11226
 1117  N   1.69511   1.14684   1.11052   1.21880
 1118  N   1.69511   1.14684   1.11052   1.21880
 1119  N   1.69511   1.14684   1.11052   1.21880
 1120  N   1.69511   1.14684   1.11052   1.21880
 1121  N   1.69511   1.14684   1.11052   1.21880
 1122  N   1.69511   1.14684   1.11052   1.21880
 1123  N   1.69511   1.14684   1.11052   1.21880
 1124  N   1.69511   1.14684   1.11052   1.21880
 1125  N   1.69511   1.14684   1.11052   1.21880
 1126  N   1.69511   1.14684   1.11052   1.21880
 1127  N   1.69511   1.14684   1.11052   1.21880
 1128  N   1.69511   1.14684   1.11052   1.21880
 1129  N   1.69511   1.14684   1.11052   1.21880
 1130  N   1.69511   1.14684   1.11052   1.21880
 1131  N   1.69511   1.14684   1.11052   1.21880
 1132  N   1.69511   1.14684   1.11052   1.21880
 1133  F   1.91739   1.91365   1.64452   1.62387
 1134  F   1.91739   1.91365   1.64452   1.62387
 1135  F   1.91739   1.91365   1.64452   1.62387
 1136  F   1.91739   1.91365   1.64452   1.62387
 1137  F   1.91739   1.91365   1.64452   1.62387
 1138  F   1.91739   1.91365   1.64452   1.62387
 1139  F   1.91739   1.91365   1.64452   1.62387
 1140  F   1.91739   1.91365   1.64452   1.62387
 1141  F   1.91739   1.91365   1.64452   1.62387
 1142  F   1.91739   1.91365   1.64452   1.62387
 1143  F   1.91739   1.91365   1.64452   1.62387
 1144  F   1.91739   1.91365   1.64452   1.62387
 1145  F   1.91739   1.91365   1.64452   1.62387
 1146  F   1.91739   1.91365   1.64452   1.62387
 1147  F   1.91739   1.91365   1.64452   1.62387
 1148  F   1.91739   1.91365   1.64452   1.62387
 1149  F   1.91738   1.62266   1.74273   1.81486
 1150  F   1.91738   1.62266   1.74273   1.81486
 1151  F   1.91738   1.62266   1.74273   1.81486
 1152  F   1.91738   1.62266   1.74273   1.81486
 1153  F   1.91738   1.62266   1.74273   1.81486
 1154  F   1.91738   1.62266   1.74273   1.81486
 1155  F   1.91738   1.62266   1.74273   1.81486
 1156  F   1.91738   1.62266   1.74273   1.81486
 1157  F   1.91738   1.62266   1.74273   1.81486
 1158  F   1.91738   1.62266   1.74273   1.81486
 1159  F   1.91738   1.62266   1.74273   1.81486
 1160  F   1.91738   1.62266   1.74273   1.81486
 1161  F   1.91738   1.62266   1.74273   1.81486
 1162  F   1.91738   1.62266   1.74273   1.81486
 1163  F   1.91738   1.62266   1.74273   1.81486
 1164  F   1.91738   1.62266   1.74273   1.81486
 1165  F   1.91754   1.77906   1.52061   1.87984
 1166  F   1.91754   1.77906   1.52061   1.87984
 1167  F   1.91754   1.77906   1.52061   1.87984
 1168  F   1.91754   1.77906   1.52061   1.87984
 1169  F   1.91754   1.77906   1.52061   1.87984
 1170  F   1.91754   1.77906   1.52061   1.87984
 1171  F   1.91754   1.77906   1.52061   1.87984
 1172  F   1.91754   1.77906   1.52061   1.87984
 1173  F   1.91754   1.77906   1.52061   1.87984
 1174  F   1.91754   1.77906   1.52061   1.87984
 1175  F   1.91754   1.77906   1.52061   1.87984
 1176  F   1.91754   1.77906   1.52061   1.87984
 1177  F   1.91754   1.77906   1.52061   1.87984
 1178  F   1.91754   1.77906   1.52061   1.87984
 1179  F   1.91754   1.77906   1.52061   1.87984
 1180  F   1.91754   1.77906   1.52061   1.87984
 1181  F   1.91816   1.85305   1.37548   1.92663
 1182  F   1.91816   1.85305   1.37548   1.92663
 1183  F   1.91816   1.85305   1.37548   1.92663
 1184  F   1.91816   1.85305   1.37548   1.92663
 1185  F   1.91816   1.85305   1.37548   1.92663
 1186  F   1.91816   1.85305   1.37548   1.92663
 1187  F   1.91816   1.85305   1.37548   1.92663
 1188  F   1.91816   1.85305   1.37548   1.92663
 1189  F   1.91816   1.85305   1.37548   1.92663
 1190  F   1.91816   1.85305   1.37548   1.92663
 1191  F   1.91816   1.85305   1.37548   1.92663
 1192  F   1.91816   1.85305   1.37548   1.92663
 1193  F   1.91816   1.85305   1.37548   1.92663
 1194  F   1.91816   1.85305   1.37548   1.92663
 1195  F   1.91816   1.85305   1.37548   1.92663
 1196  F   1.91816   1.85305   1.37548   1.92663
 1197  F   1.91744   1.67256   1.69254   1.81812
 1198  F   1.91744   1.67256   1.69254   1.81812
 1199  F   1.91744   1.67256   1.69254   1.81812
 1200  F   1.91744   1.67256   1.69254   1.81812
 1201  F   1.91744   1.67256   1.69254   1.81812
 1202  F   1.91744   1.67256   1.69254   1.81812
 1203  F   1.91744   1.67256   1.69254   1.81812
 1204  F   1.91744   1.67256   1.69254   1.81812
 1205  F   1.91744   1.67256   1.69254   1.81812
 1206  F   1.91744   1.67256   1.69254   1.81812
 1207  F   1.91744   1.67256   1.69254   1.81812
 1208  F   1.91744   1.67256   1.69254   1.81812
 1209  F   1.91744   1.67256   1.69254   1.81812
 1210  F   1.91744   1.67256   1.69254   1.81812
 1211  F   1.91744   1.67256   1.69254   1.81812
 1212  F   1.91744   1.67256   1.69254   1.81812
 1213  F   1.91750   1.50409   1.73979   1.93943
 1214  F   1.91750   1.50409   1.73979   1.93943
 1215  F   1.91750   1.50409   1.73979   1.93943
 1216  F   1.91750   1.50409   1.73979   1.93943
 1217  F   1.91750   1.50409   1.73979   1.93943
 1218  F   1.91750   1.50409   1.73979   1.93943
 1219  F   1.91750   1.50409   1.73979   1.93943
 1220  F   1.91750   1.50409   1.73979   1.93943
 1221  F   1.91750   1.50409   1.73979   1.93943
 1222  F   1.91750   1.50409   1.73979   1.93943
 1223  F   1.91750   1.50409   1.73979   1.93943
 1224  F   1.91750   1.50409   1.73979   1.93943
 1225  F   1.91750   1.50409   1.73979   1.93943
 1226  F   1.91750   1.50409   1.73979   1.93943
 1227  F   1.91750   1.50409   1.73979   1.93943
 1228  F   1.91750   1.50409   1.73979   1.93943
 1229  H   0.85496
 1230  H   0.85496
 1231  H   0.85496
 1232  H   0.85496
 1233  H   0.85496
 1234  H   0.85496
 1235  H   0.85496
 1236  H   0.85496
 1237  H   0.85496
 1238  H   0.85496
 1239  H   0.85496
 1240  H   0.85496
 1241  H   0.85496
 1242  H   0.85496
 1243  H   0.85496
 1244  H   0.85496
 1245  H   0.88187
 1246  H   0.88187
 1247  H   0.88187
 1248  H   0.88187
 1249  H   0.88187
 1250  H   0.88187
 1251  H   0.88187
 1252  H   0.88187
 1253  H   0.88187
 1254  H   0.88187
 1255  H   0.88187
 1256  H   0.88187
 1257  H   0.88187
 1258  H   0.88187
 1259  H   0.88187
 1260  H   0.88187
 1261  H   0.89557
 1262  H   0.89557
 1263  H   0.89557
 1264  H   0.89557
 1265  H   0.89557
 1266  H   0.89557
 1267  H   0.89557
 1268  H   0.89557
 1269  H   0.89557
 1270  H   0.89557
 1271  H   0.89557
 1272  H   0.89557
 1273  H   0.89557
 1274  H   0.89557
 1275  H   0.89557
 1276  H   0.89557
 1277  H   0.85529
 1278  H   0.85529
 1279  H   0.85529
 1280  H   0.85529
 1281  H   0.85529
 1282  H   0.85529
 1283  H   0.85529
 1284  H   0.85529
 1285  H   0.85529
 1286  H   0.85529
 1287  H   0.85529
 1288  H   0.85529
 1289  H   0.85529
 1290  H   0.85529
 1291  H   0.85529
 1292  H   0.85529
 1293  H   0.85528
 1294  H   0.85528
 1295  H   0.85528
 1296  H   0.85528
 1297  H   0.85528
 1298  H   0.85528
 1299  H   0.85528
 1300  H   0.85528
 1301  H   0.85528
 1302  H   0.85528
 1303  H   0.85528
 1304  H   0.85528
 1305  H   0.85528
 1306  H   0.85528
 1307  H   0.85528
 1308  H   0.85528
 1309  H   0.88075
 1310  H   0.88075
 1311  H   0.88075
 1312  H   0.88075
 1313  H   0.88075
 1314  H   0.88075
 1315  H   0.88075
 1316  H   0.88075
 1317  H   0.88075
 1318  H   0.88075
 1319  H   0.88075
 1320  H   0.88075
 1321  H   0.88075
 1322  H   0.88075
 1323  H   0.88075
 1324  H   0.88075
 1325  H   0.87163
 1326  H   0.87163
 1327  H   0.87163
 1328  H   0.87163
 1329  H   0.87163
 1330  H   0.87163
 1331  H   0.87163
 1332  H   0.87163
 1333  H   0.87163
 1334  H   0.87163
 1335  H   0.87163
 1336  H   0.87163
 1337  H   0.87163
 1338  H   0.87163
 1339  H   0.87163
 1340  H   0.87163
 1341  H   0.86096
 1342  H   0.86096
 1343  H   0.86096
 1344  H   0.86096
 1345  H   0.86096
 1346  H   0.86096
 1347  H   0.86096
 1348  H   0.86096
 1349  H   0.86096
 1350  H   0.86096
 1351  H   0.86096
 1352  H   0.86096
 1353  H   0.86096
 1354  H   0.86096
 1355  H   0.86096
 1356  H   0.86096
 1357  H   0.85923
 1358  H   0.85923
 1359  H   0.85923
 1360  H   0.85923
 1361  H   0.85923
 1362  H   0.85923
 1363  H   0.85923
 1364  H   0.85923
 1365  H   0.85923
 1366  H   0.85923
 1367  H   0.85923
 1368  H   0.85923
 1369  H   0.85923
 1370  H   0.85923
 1371  H   0.85923
 1372  H   0.85923
 1373  H   0.84490
 1374  H   0.84490
 1375  H   0.84490
 1376  H   0.84490
 1377  H   0.84490
 1378  H   0.84490
 1379  H   0.84490
 1380  H   0.84490
 1381  H   0.84490
 1382  H   0.84490
 1383  H   0.84490
 1384  H   0.84490
 1385  H   0.84490
 1386  H   0.84490
 1387  H   0.84490
 1388  H   0.84490
 1389  H   0.84686
 1390  H   0.84686
 1391  H   0.84686
 1392  H   0.84686
 1393  H   0.84686
 1394  H   0.84686
 1395  H   0.84686
 1396  H   0.84686
 1397  H   0.84686
 1398  H   0.84686
 1399  H   0.84686
 1400  H   0.84686
 1401  H   0.84686
 1402  H   0.84686
 1403  H   0.84686
 1404  H   0.84686
 1405  H   0.85661
 1406  H   0.85661
 1407  H   0.85661
 1408  H   0.85661
 1409  H   0.85661
 1410  H   0.85661
 1411  H   0.85661
 1412  H   0.85661
 1413  H   0.85661
 1414  H   0.85661
 1415  H   0.85661
 1416  H   0.85661
 1417  H   0.85661
 1418  H   0.85661
 1419  H   0.85661
 1420  H   0.85661
 1421  H   0.83542
 1422  H   0.83542
 1423  H   0.83542
 1424  H   0.83542
 1425  H   0.83542
 1426  H   0.83542
 1427  H   0.83542
 1428  H   0.83542
 1429  H   0.83542
 1430  H   0.83542
 1431  H   0.83542
 1432  H   0.83542
 1433  H   0.83542
 1434  H   0.83542
 1435  H   0.83542
 1436  H   0.83542
 1437  H   0.85705
 1438  H   0.85705
 1439  H   0.85705
 1440  H   0.85705
 1441  H   0.85705
 1442  H   0.85705
 1443  H   0.85705
 1444  H   0.85705
 1445  H   0.85705
 1446  H   0.85705
 1447  H   0.85705
 1448  H   0.85705
 1449  H   0.85705
 1450  H   0.85705
 1451  H   0.85705
 1452  H   0.85705
 1453  H   0.86381
 1454  H   0.86381
 1455  H   0.86381
 1456  H   0.86381
 1457  H   0.86381
 1458  H   0.86381
 1459  H   0.86381
 1460  H   0.86381
 1461  H   0.86381
 1462  H   0.86381
 1463  H   0.86381
 1464  H   0.86381
 1465  H   0.86381
 1466  H   0.86381
 1467  H   0.86381
 1468  H   0.86381
 1469  H   0.86031
 1470  H   0.86031
 1471  H   0.86031
 1472  H   0.86031
 1473  H   0.86031
 1474  H   0.86031
 1475  H   0.86031
 1476  H   0.86031
 1477  H   0.86031
 1478  H   0.86031
 1479  H   0.86031
 1480  H   0.86031
 1481  H   0.86031
 1482  H   0.86031
 1483  H   0.86031
 1484  H   0.86031
 1485  H   0.85957
 1486  H   0.85957
 1487  H   0.85957
 1488  H   0.85957
 1489  H   0.85957
 1490  H   0.85957
 1491  H   0.85957
 1492  H   0.85957
 1493  H   0.85957
 1494  H   0.85957
 1495  H   0.85957
 1496  H   0.85957
 1497  H   0.85957
 1498  H   0.85957
 1499  H   0.85957
 1500  H   0.85957
 1501  H   0.85976
 1502  H   0.85976
 1503  H   0.85976
 1504  H   0.85976
 1505  H   0.85976
 1506  H   0.85976
 1507  H   0.85976
 1508  H   0.85976
 1509  H   0.85976
 1510  H   0.85976
 1511  H   0.85976
 1512  H   0.85976
 1513  H   0.85976
 1514  H   0.85976
 1515  H   0.85976
 1516  H   0.85976
 1517  H   0.86497
 1518  H   0.86497
 1519  H   0.86497
 1520  H   0.86497
 1521  H   0.86497
 1522  H   0.86497
 1523  H   0.86497
 1524  H   0.86497
 1525  H   0.86497
 1526  H   0.86497
 1527  H   0.86497
 1528  H   0.86497
 1529  H   0.86497
 1530  H   0.86497
 1531  H   0.86497
 1532  H   0.86497
 1533  H   0.85973
 1534  H   0.85973
 1535  H   0.85973
 1536  H   0.85973
 1537  H   0.85973
 1538  H   0.85973
 1539  H   0.85973
 1540  H   0.85973
 1541  H   0.85973
 1542  H   0.85973
 1543  H   0.85973
 1544  H   0.85973
 1545  H   0.85973
 1546  H   0.85973
 1547  H   0.85973
 1548  H   0.85973
 1549  H   0.85883
 1550  H   0.85883
 1551  H   0.85883
 1552  H   0.85883
 1553  H   0.85883
 1554  H   0.85883
 1555  H   0.85883
 1556  H   0.85883
 1557  H   0.85883
 1558  H   0.85883
 1559  H   0.85883
 1560  H   0.85883
 1561  H   0.85883
 1562  H   0.85883
 1563  H   0.85883
 1564  H   0.85883
 1565  H   0.83491
 1566  H   0.83491
 1567  H   0.83491
 1568  H   0.83491
 1569  H   0.83491
 1570  H   0.83491
 1571  H   0.83491
 1572  H   0.83491
 1573  H   0.83491
 1574  H   0.83491
 1575  H   0.83491
 1576  H   0.83491
 1577  H   0.83491
 1578  H   0.83491
 1579  H   0.83491
 1580  H   0.83491
 1581  H   0.86672
 1582  H   0.86672
 1583  H   0.86672
 1584  H   0.86672
 1585  H   0.86672
 1586  H   0.86672
 1587  H   0.86672
 1588  H   0.86672
 1589  H   0.86672
 1590  H   0.86672
 1591  H   0.86672
 1592  H   0.86672
 1593  H   0.86672
 1594  H   0.86672
 1595  H   0.86672
 1596  H   0.86672
 1597  H   0.85612
 1598  H   0.85612
 1599  H   0.85612
 1600  H   0.85612
 1601  H   0.85612
 1602  H   0.85612
 1603  H   0.85612
 1604  H   0.85612
 1605  H   0.85612
 1606  H   0.85612
 1607  H   0.85612
 1608  H   0.85612
 1609  H   0.85612
 1610  H   0.85612
 1611  H   0.85612
 1612  H   0.85612
 1613  H   0.84632
 1614  H   0.84632
 1615  H   0.84632
 1616  H   0.84632
 1617  H   0.84632
 1618  H   0.84632
 1619  H   0.84632
 1620  H   0.84632
 1621  H   0.84632
 1622  H   0.84632
 1623  H   0.84632
 1624  H   0.84632
 1625  H   0.84632
 1626  H   0.84632
 1627  H   0.84632
 1628  H   0.84632
 1629  H   0.85812
 1630  H   0.85812
 1631  H   0.85812
 1632  H   0.85812
 1633  H   0.85812
 1634  H   0.85812
 1635  H   0.85812
 1636  H   0.85812
 1637  H   0.85812
 1638  H   0.85812
 1639  H   0.85812
 1640  H   0.85812
 1641  H   0.85812
 1642  H   0.85812
 1643  H   0.85812
 1644  H   0.85812
 1645  H   0.83729
 1646  H   0.83729
 1647  H   0.83729
 1648  H   0.83729
 1649  H   0.83729
 1650  H   0.83729
 1651  H   0.83729
 1652  H   0.83729
 1653  H   0.83729
 1654  H   0.83729
 1655  H   0.83729
 1656  H   0.83729
 1657  H   0.83729
 1658  H   0.83729
 1659  H   0.83729
 1660  H   0.83729
 1661  H   0.85963
 1662  H   0.85963
 1663  H   0.85963
 1664  H   0.85963
 1665  H   0.85963
 1666  H   0.85963
 1667  H   0.85963
 1668  H   0.85963
 1669  H   0.85963
 1670  H   0.85963
 1671  H   0.85963
 1672  H   0.85963
 1673  H   0.85963
 1674  H   0.85963
 1675  H   0.85963
 1676  H   0.85963
 1677  H   0.85973
 1678  H   0.85973
 1679  H   0.85973
 1680  H   0.85973
 1681  H   0.85973
 1682  H   0.85973
 1683  H   0.85973
 1684  H   0.85973
 1685  H   0.85973
 1686  H   0.85973
 1687  H   0.85973
 1688  H   0.85973
 1689  H   0.85973
 1690  H   0.85973
 1691  H   0.85973
 1692  H   0.85973
 1693  H   0.86530
 1694  H   0.86530
 1695  H   0.86530
 1696  H   0.86530
 1697  H   0.86530
 1698  H   0.86530
 1699  H   0.86530
 1700  H   0.86530
 1701  H   0.86530
 1702  H   0.86530
 1703  H   0.86530
 1704  H   0.86530
 1705  H   0.86530
 1706  H   0.86530
 1707  H   0.86530
 1708  H   0.86530
 1709  H   0.85662
 1710  H   0.85662
 1711  H   0.85662
 1712  H   0.85662
 1713  H   0.85662
 1714  H   0.85662
 1715  H   0.85662
 1716  H   0.85662
 1717  H   0.85662
 1718  H   0.85662
 1719  H   0.85662
 1720  H   0.85662
 1721  H   0.85662
 1722  H   0.85662
 1723  H   0.85662
 1724  H   0.85662
 1725  H   0.85503
 1726  H   0.85503
 1727  H   0.85503
 1728  H   0.85503
 1729  H   0.85503
 1730  H   0.85503
 1731  H   0.85503
 1732  H   0.85503
 1733  H   0.85503
 1734  H   0.85503
 1735  H   0.85503
 1736  H   0.85503
 1737  H   0.85503
 1738  H   0.85503
 1739  H   0.85503
 1740  H   0.85503
 1741  H   0.86319
 1742  H   0.86319
 1743  H   0.86319
 1744  H   0.86319
 1745  H   0.86319
 1746  H   0.86319
 1747  H   0.86319
 1748  H   0.86319
 1749  H   0.86319
 1750  H   0.86319
 1751  H   0.86319
 1752  H   0.86319
 1753  H   0.86319
 1754  H   0.86319
 1755  H   0.86319
 1756  H   0.86319
 1757  H   0.83851
 1758  H   0.83851
 1759  H   0.83851
 1760  H   0.83851
 1761  H   0.83851
 1762  H   0.83851
 1763  H   0.83851
 1764  H   0.83851
 1765  H   0.83851
 1766  H   0.83851
 1767  H   0.83851
 1768  H   0.83851
 1769  H   0.83851
 1770  H   0.83851
 1771  H   0.83851
 1772  H   0.83851
 1773  H   0.85346
 1774  H   0.85346
 1775  H   0.85346
 1776  H   0.85346
 1777  H   0.85346
 1778  H   0.85346
 1779  H   0.85346
 1780  H   0.85346
 1781  H   0.85346
 1782  H   0.85346
 1783  H   0.85346
 1784  H   0.85346
 1785  H   0.85346
 1786  H   0.85346
 1787  H   0.85346
 1788  H   0.85346
 1789  H   0.86168
 1790  H   0.86168
 1791  H   0.86168
 1792  H   0.86168
 1793  H   0.86168
 1794  H   0.86168
 1795  H   0.86168
 1796  H   0.86168
 1797  H   0.86168
 1798  H   0.86168
 1799  H   0.86168
 1800  H   0.86168
 1801  H   0.86168
 1802  H   0.86168
 1803  H   0.86168
 1804  H   0.86168
 1805  H   0.84070
 1806  H   0.84070
 1807  H   0.84070
 1808  H   0.84070
 1809  H   0.84070
 1810  H   0.84070
 1811  H   0.84070
 1812  H   0.84070
 1813  H   0.84070
 1814  H   0.84070
 1815  H   0.84070
 1816  H   0.84070
 1817  H   0.84070
 1818  H   0.84070
 1819  H   0.84070
 1820  H   0.84070

 **********************
 *                    *
 * JOB ENDED NORMALLY *
 *                    *
 **********************



 TOTAL JOB TIME:          1200.48 SECONDS

 == MOPAC DONE ==
