 *******************************************************************************
 ** Cite this program as: MOPAC2016, Version: 22.067 , James J. P. Stewart,   **
 **                           web-site: HTTP://OpenMOPAC.net.                 **
 *******************************************************************************
 **                                                                           **
 **                                MOPAC2016                                  **
 **                                                                           **
 *******************************************************************************

                              AM1 CALCULATION RESULTS

 *******************************************************************************
 *  CALCULATION DONE:                                Wed Jun  8 11:06:43 2022  *
 *  AM1        - The AM1 Hamiltonian to be used
 *
 *
 *
 *                 CHARGE ON SYSTEM = 0
 *
 *
 *
 *  T=         - A TIME OF 172800.0 SECONDS REQUESTED
 *  DUMP=N     - RESTART FILE WRITTEN EVERY 7200.0 SECONDS REQUESTED
 *  PRTCHARGE  - PRINT CHARGES IN ARC FILE
 *******************************************************************************
AM1 CHARGE=0 PRTCHAR


   ATOM   CHEMICAL          X               Y               Z
  NUMBER   SYMBOL      (ANGSTROMS)     (ANGSTROMS)     (ANGSTROMS)
 
     1       H          4.05014000      5.49223000      4.22112000   
     2       H          7.71326000     14.88257000     32.93338000   
     3       H         16.74532000      0.76141000      4.22112000   
     4       H         -4.98192000     19.61340000     32.93338000   
     5       H         14.49474000     14.12117000      4.22112000   
     6       H         -2.73134000      6.25364000     32.93338000   
     7       H          7.71326000     14.88257000      4.22112000   
     8       H          4.05014000      5.49223000     32.93338000   
     9       H         -4.98192000     19.61340000      4.22112000   
    10       H         16.74532000      0.76141000     32.93338000   
    11       H         -2.73134000      6.25364000      4.22112000   
    12       H         14.49474000     14.12117000     32.93338000   
    13       H          2.73134000      6.25364000     14.35613000   
    14       H          9.03206000     14.12117000     22.79837000   
    15       H         -7.71326000     14.88257000     14.35613000   
    16       H         19.47666000      5.49223000     22.79837000   
    17       H          4.98192000     19.61340000     14.35613000   
    18       H          6.78148000      0.76141000     22.79837000   
    19       H          9.03206000     14.12117000     14.35613000   
    20       H          2.73134000      6.25364000     22.79837000   
    21       H         19.47666000      5.49223000     14.35613000   
    22       H         -7.71326000     14.88257000     22.79837000   
    23       H          6.78148000      0.76141000     14.35613000   
    24       H          4.98192000     19.61340000     22.79837000   
    25       H          8.57258000      5.93701000      3.58652000   
    26       H          3.19082000     14.43779000     33.56798000   
    27       H         14.09891000      4.45556000      3.58652000   
    28       H         -2.33551000     15.91924000     33.56798000   
    29       H         12.61872000      9.98223000      3.58652000   
    30       H         -0.85532000     10.39258000     33.56798000   
    31       H          3.19082000     14.43779000      3.58652000   
    32       H          8.57258000      5.93701000     33.56798000   
    33       H         -2.33551000     15.91924000      3.58652000   
    34       H         14.09891000      4.45556000     33.56798000   
    35       H         -0.85532000     10.39258000      3.58652000   
    36       H         12.61872000      9.98223000     33.56798000   
    37       H          0.85532000     10.39258000     14.99073000   
    38       H         10.90808000      9.98223000     22.16377000   
    39       H         -3.19082000     14.43779000     14.99073000   
    40       H         14.95422000      5.93701000     22.16377000   
    41       H          2.33551000     15.91924000     14.99073000   
    42       H          9.42789000      4.45556000     22.16377000   
    43       H         10.90808000      9.98223000     14.99073000   
    44       H          0.85532000     10.39258000     22.16377000   
    45       H         14.95422000      5.93701000     14.99073000   
    46       H         -3.19082000     14.43779000     22.16377000   
    47       H          9.42789000      4.45556000     14.99073000   
    48       H          2.33551000     15.91924000     22.16377000   
    49       H          6.60421000      2.69436000      6.77772000   
    50       H          5.15919000     17.68044000     30.37678000   
    51       H         17.89131000      4.37223000      6.77772000   
    52       H         -6.12791000     16.00258000     30.37678000   
    53       H         10.79468000     13.30821000      6.77772000   
    54       H          0.96872000      7.06659000     30.37678000   
    55       H          5.15919000     17.68044000      6.77772000   
    56       H          6.60421000      2.69436000     30.37678000   
    57       H         -6.12791000     16.00258000      6.77772000   
    58       H         17.89131000      4.37223000     30.37678000   
    59       H          0.96872000      7.06659000      6.77772000   
    60       H         10.79468000     13.30821000     30.37678000   
    61       H         -0.96872000      7.06659000     11.79953000   
    62       H         12.73212000     13.30821000     25.35497000   
    63       H         -5.15919000     17.68044000     11.79953000   
    64       H         16.92259000      2.69436000     25.35497000   
    65       H          6.12791000     16.00258000     11.79953000   
    66       H          5.63549000      4.37223000     25.35497000   
    67       H         12.73212000     13.30821000     11.79953000   
    68       H         -0.96872000      7.06659000     25.35497000   
    69       H         16.92259000      2.69436000     11.79953000   
    70       H         -5.15919000     17.68044000     25.35497000   
    71       H          5.63549000      4.37223000     11.79953000   
    72       H          6.12791000     16.00258000     25.35497000   
    73       H          5.15966000      4.25915000      5.62779000   
    74       H          6.60374000     16.11566000     31.52671000   
    75       H         17.25844000      2.33882000      5.62779000   
    76       H         -5.49504000     18.03598000     31.52671000   
    77       H         12.87210000     13.77683000      5.62779000   
    78       H         -1.10870000      6.59797000     31.52671000   
    79       H          6.60374000     16.11566000      5.62779000   
    80       H          5.15966000      4.25915000     31.52671000   
    81       H         -5.49504000     18.03598000      5.62779000   
    82       H         17.25844000      2.33882000     31.52671000   
    83       H         -1.10870000      6.59797000      5.62779000   
    84       H         12.87210000     13.77683000     31.52671000   
    85       H          1.10870000      6.59797000     12.94946000   
    86       H         10.65470000     13.77683000     24.20504000   
    87       H         -6.60374000     16.11566000     12.94946000   
    88       H         18.36714000      4.25915000     24.20504000   
    89       H          5.49504000     18.03598000     12.94946000   
    90       H          6.26836000      2.33882000     24.20504000   
    91       H         10.65470000     13.77683000     12.94946000   
    92       H          1.10870000      6.59797000     24.20504000   
    93       H         18.36714000      4.25915000     12.94946000   
    94       H         -6.60374000     16.11566000     24.20504000   
    95       H          6.26836000      2.33882000     12.94946000   
    96       H          5.49504000     18.03598000     24.20504000   
    97       H          0.88378000      8.23000000      1.93686000   
    98       H         10.87962000     12.14481000     35.21764000   
    99       H          4.19412000     17.02519000      1.93686000   
   100       H          7.56928000      3.34962000     35.21764000   
   101       H         -5.07791000     15.49443000      1.93686000   
   102       H         16.84131000      4.88038000     35.21764000   
   103       H         10.87962000     12.14481000      1.93686000   
   104       H          0.88378000      8.23000000     35.21764000   
   105       H          7.56928000      3.34962000      1.93686000   
   106       H          4.19412000     17.02519000     35.21764000   
   107       H         16.84131000      4.88038000      1.93686000   
   108       H         -5.07791000     15.49443000     35.21764000   
   109       H          6.68549000      4.88038000     16.64039000   
   110       H          5.07791000     15.49443000     20.51411000   
   111       H         12.64718000     12.14481000     16.64039000   
   112       H         -0.88378000      8.23000000     20.51411000   
   113       H         15.95752000      3.34962000     16.64039000   
   114       H         -4.19412000     17.02519000     20.51411000   
   115       H          5.07791000     15.49443000     16.64039000   
   116       H          6.68549000      4.88038000     20.51411000   
   117       H         -0.88378000      8.23000000     16.64039000   
   118       H         12.64718000     12.14481000     20.51411000   
   119       H         -4.19412000     17.02519000     16.64039000   
   120       H         15.95752000      3.34962000     20.51411000   
   121       H          4.66125000     10.16968000      1.24207000   
   122       H          7.10215000     10.20513000     35.91243000   
   123       H          0.62558000     19.32673000      1.24207000   
   124       H         11.13782000      1.04808000     35.91243000   
   125       H         -5.28682000     11.25321000      1.24207000   
   126       H         17.05022000      9.12160000     35.91243000   
   127       H          7.10215000     10.20513000      1.24207000   
   128       H          4.66125000     10.16968000     35.91243000   
   129       H         11.13782000      1.04808000      1.24207000   
   130       H          0.62558000     19.32673000     35.91243000   
   131       H         17.05022000      9.12160000      1.24207000   
   132       H         -5.28682000     11.25321000     35.91243000   
   133       H          6.47658000      9.12160000     17.33518000   
   134       H          5.28682000     11.25321000     19.81932000   
   135       H         16.42465000     10.20513000     17.33518000   
   136       H         -4.66125000     10.16968000     19.81932000   
   137       H         12.38898000      1.04808000     17.33518000   
   138       H         -0.62558000     19.32673000     19.81932000   
   139       H          5.28682000     11.25321000     17.33518000   
   140       H          6.47658000      9.12160000     19.81932000   
   141       H         -4.66125000     10.16968000     17.33518000   
   142       H         16.42465000     10.20513000     19.81932000   
   143       H         -0.62558000     19.32673000     17.33518000   
   144       H         12.38898000      1.04808000     19.81932000   
   145       H          5.80606000      8.43008000      2.53728000   
   146       H          5.95734000     11.94473000     34.61722000   
   147       H         13.32311000      0.81316000      2.53728000   
   148       H         -1.55971000     19.56165000     34.61722000   
   149       H         16.16103000     11.13157000      2.53728000   
   150       H         -4.39763000      9.24323000     34.61722000   
   151       H          5.95734000     11.94473000      2.53728000   
   152       H          5.80606000      8.43008000     34.61722000   
   153       H         -1.55971000     19.56165000      2.53728000   
   154       H         13.32311000      0.81316000     34.61722000   
   155       H         -4.39763000      9.24323000      2.53728000   
   156       H         16.16103000     11.13157000     34.61722000   
   157       H          4.39763000      9.24323000     16.03997000   
   158       H          7.36577000     11.13157000     21.11453000   
   159       H         -5.95734000     11.94473000     16.03997000   
   160       H         17.72074000      8.43008000     21.11453000   
   161       H          1.55971000     19.56165000     16.03997000   
   162       H         10.20369000      0.81316000     21.11453000   
   163       H          7.36577000     11.13157000     16.03997000   
   164       H          4.39763000      9.24323000     21.11453000   
   165       H         17.72074000      8.43008000     16.03997000   
   166       H         -5.95734000     11.94473000     21.11453000   
   167       H         10.20369000      0.81316000     16.03997000   
   168       H          1.55971000     19.56165000     21.11453000   
   169       H          7.96100000      0.78402000      6.60867000   
   170       H          3.80240000     19.59078000     30.54583000   
   171       H         18.86732000      6.50242000      6.60867000   
   172       H         -7.10392000     13.87239000     30.54583000   
   173       H          8.46188000     13.08837000      6.60867000   
   174       H          3.30152000      7.28644000     30.54583000   
   175       H          3.80240000     19.59078000      6.60867000   
   176       H          7.96100000      0.78402000     30.54583000   
   177       H         -7.10392000     13.87239000      6.60867000   
   178       H         18.86732000      6.50242000     30.54583000   
   179       H          3.30152000      7.28644000      6.60867000   
   180       H          8.46188000     13.08837000     30.54583000   
   181       H         -3.30152000      7.28644000     11.96858000   
   182       H         15.06492000     13.08837000     25.18592000   
   183       H         -3.80240000     19.59078000     11.96858000   
   184       H         15.56580000      0.78402000     25.18592000   
   185       H          7.10392000     13.87239000     11.96858000   
   186       H          4.65948000      6.50242000     25.18592000   
   187       H         15.06492000     13.08837000     11.96858000   
   188       H         -3.30152000      7.28644000     25.18592000   
   189       H         15.56580000      0.78402000     11.96858000   
   190       H         -3.80240000     19.59078000     25.18592000   
   191       H          4.65948000      6.50242000     11.96858000   
   192       H          7.10392000     13.87239000     25.18592000   
   193       H         -2.43349000     19.76336000      8.05510000   
   194       H         14.19689000      0.61145000     29.09940000   
   195       H         -4.13542000      8.38566000      8.05510000   
   196       H         15.89882000     11.98915000     29.09940000   
   197       H          6.56892000     12.60060000      8.05510000   
   198       H          5.19448000      7.77421000     29.09940000   
   199       H         14.19689000      0.61145000      8.05510000   
   200       H         -2.43349000     19.76336000     29.09940000   
   201       H         15.89882000     11.98915000      8.05510000   
   202       H         -4.13542000      8.38566000     29.09940000   
   203       H          5.19448000      7.77421000      8.05510000   
   204       H          6.56892000     12.60060000     29.09940000   
   205       H         18.33232000      7.77421000     10.52215000   
   206       H         -6.56892000     12.60060000     26.63235000   
   207       H          9.32991000      0.61145000     10.52215000   
   208       H          2.43349000     19.76336000     26.63235000   
   209       H          7.62798000     11.98915000     10.52215000   
   210       H          4.13542000      8.38566000     26.63235000   
   211       H         -6.56892000     12.60060000     10.52215000   
   212       H         18.33232000      7.77421000     26.63235000   
   213       H          2.43349000     19.76336000     10.52215000   
   214       H          9.32991000      0.61145000     26.63235000   
   215       H          4.13542000      8.38566000     10.52215000   
   216       H          7.62798000     11.98915000     26.63235000   
   217       H         12.38157000      2.44151000      8.09522000   
   218       H         -0.61817000     17.93329000     29.05928000   
   219       H         15.22160000      9.50199000      8.09522000   
   220       H         -3.45820000     10.87281000     29.05928000   
   221       H          7.68703000      8.43130000      8.09522000   
   222       H          4.07637000     11.94351000     29.05928000   
   223       H         -0.61817000     17.93329000      8.09522000   
   224       H         12.38157000      2.44151000     29.05928000   
   225       H         -3.45820000     10.87281000      8.09522000   
   226       H         15.22160000      9.50199000     29.05928000   
   227       H          4.07637000     11.94351000      8.09522000   
   228       H          7.68703000      8.43130000     29.05928000   
   229       H         -4.07637000     11.94351000     10.48203000   
   230       H         15.83977000      8.43130000     26.67247000   
   231       H          0.61817000     17.93329000     10.48203000   
   232       H         11.14523000      2.44151000     26.67247000   
   233       H          3.45820000     10.87281000     10.48203000   
   234       H          8.30520000      9.50199000     26.67247000   
   235       H         15.83977000      8.43130000     10.48203000   
   236       H         -4.07637000     11.94351000     26.67247000   
   237       H         11.14523000      2.44151000     10.48203000   
   238       H          0.61817000     17.93329000     26.67247000   
   239       H          8.30520000      9.50199000     10.48203000   
   240       H          3.45820000     10.87281000     26.67247000   
   241       H         10.98184000      3.86918000      6.74317000   
   242       H          0.78156000     16.50563000     30.41133000   
   243       H         14.68508000      7.57596000      6.74317000   
   244       H         -2.92168000     12.79884000     30.41133000   
   245       H          9.62328000      8.92967000      6.74317000   
   246       H          2.14012000     11.44514000     30.41133000   
   247       H          0.78156000     16.50563000      6.74317000   
   248       H         10.98184000      3.86918000     30.41133000   
   249       H         -2.92168000     12.79884000      6.74317000   
   250       H         14.68508000      7.57596000     30.41133000   
   251       H          2.14012000     11.44514000      6.74317000   
   252       H          9.62328000      8.92967000     30.41133000   
   253       H         -2.14012000     11.44514000     11.83408000   
   254       H         13.90352000      8.92967000     25.32042000   
   255       H         -0.78156000     16.50563000     11.83408000   
   256       H         12.54496000      3.86918000     25.32042000   
   257       H          2.92168000     12.79884000     11.83408000   
   258       H          8.84172000      7.57596000     25.32042000   
   259       H         13.90352000      8.92967000     11.83408000   
   260       H         -2.14012000     11.44514000     25.32042000   
   261       H         12.54496000      3.86918000     11.83408000   
   262       H         -0.78156000     16.50563000     25.32042000   
   263       H          8.84172000      7.57596000     11.83408000   
   264       H          2.92168000     12.79884000     25.32042000   
   265       H          2.57148000     13.46326000     21.06883000   
   266       H          9.19192000      6.91154000     16.08567000   
   267       H         -1.18187000     15.87014000     21.06883000   
   268       H         12.94527000      4.50467000     16.08567000   
   269       H         -1.38961000     11.41621000     21.06883000   
   270       H         13.15301000      8.95860000     16.08567000   
   271       H          9.19192000      6.91154000     21.06883000   
   272       H          2.57148000     13.46326000     16.08567000   
   273       H         12.94527000      4.50467000     21.06883000   
   274       H         -1.18187000     15.87014000     16.08567000   
   275       H         13.15301000      8.95860000     21.06883000   
   276       H         -1.38961000     11.41621000     16.08567000   
   277       H         10.37379000      8.95860000     34.66292000   
   278       H          1.38961000     11.41621000      2.49158000   
   279       H         14.33488000      6.91154000     34.66292000   
   280       H         -2.57148000     13.46326000      2.49158000   
   281       H         10.58153000      4.50467000     34.66292000   
   282       H          1.18187000     15.87014000      2.49158000   
   283       H          1.38961000     11.41621000     34.66292000   
   284       H         10.37379000      8.95860000      2.49158000   
   285       H         -2.57148000     13.46326000     34.66292000   
   286       H         14.33488000      6.91154000      2.49158000   
   287       H          1.18187000     15.87014000     34.66292000   
   288       H         10.58153000      4.50467000      2.49158000   
   289       H          4.61572000      4.98898000     21.83756000   
   290       H          7.14768000     15.38583000     15.31694000   
   291       H         16.89836000      1.50285000     21.83756000   
   292       H         -5.13496000     18.87196000     15.31694000   
   293       H         13.77612000     13.88299000     21.83756000   
   294       H         -2.01272000      6.49182000     15.31694000   
   295       H          7.14768000     15.38583000     21.83756000   
   296       H          4.61572000      4.98898000     15.31694000   
   297       H         -5.13496000     18.87196000     21.83756000   
   298       H         16.89836000      1.50285000     15.31694000   
   299       H         -2.01272000      6.49182000     21.83756000   
   300       H         13.77612000     13.88299000     15.31694000   
   301       H          2.01272000      6.49182000     33.89419000   
   302       H          9.75068000     13.88299000      3.26031000   
   303       H         -7.14768000     15.38583000     33.89419000   
   304       H         18.91108000      4.98898000      3.26031000   
   305       H          5.13496000     18.87196000     33.89419000   
   306       H          6.62844000      1.50285000      3.26031000   
   307       H          9.75068000     13.88299000     33.89419000   
   308       H          2.01272000      6.49182000      3.26031000   
   309       H         18.91108000      4.98898000     33.89419000   
   310       H         -7.14768000     15.38583000      3.26031000   
   311       H          6.62844000      1.50285000     33.89419000   
   312       H          5.13496000     18.87196000      3.26031000   
   313       H         -0.00001000     13.58321000     21.02573000   
   314       H         11.76341000      6.79160000     16.12877000   
   315       H         11.76341000      6.79160000     21.02573000   
   316       H         -0.00001000     13.58321000     16.12877000   
   317       H         11.76341000      6.79160000     34.70602000   
   318       H         -0.00001000     13.58321000      2.44848000   
   319       H         -0.00001000     13.58321000     34.70602000   
   320       H         11.76341000      6.79160000      2.44848000   
   321       C          4.66348000      6.24814000      3.75186000   
   322       C          7.09992000     14.12667000     33.40264000   
   323       C         15.78401000      0.91463000      3.75186000   
   324       C         -4.02061000     19.46018000     33.40264000   
   325       C         14.84271000     13.21204000      3.75186000   
   326       C         -3.07931000      7.16276000     33.40264000   
   327       C          7.09992000     14.12667000      3.75186000   
   328       C          4.66348000      6.24814000     33.40264000   
   329       C         -4.02061000     19.46018000      3.75186000   
   330       C         15.78401000      0.91463000     33.40264000   
   331       C         -3.07931000      7.16276000      3.75186000   
   332       C         14.84271000     13.21204000     33.40264000   
   333       C          3.07931000      7.16276000     14.82539000   
   334       C          8.68409000     13.21204000     22.32911000   
   335       C         -7.09992000     14.12667000     14.82539000   
   336       C         18.86332000      6.24814000     22.32911000   
   337       C          4.02061000     19.46018000     14.82539000   
   338       C          7.74279000      0.91463000     22.32911000   
   339       C          8.68409000     13.21204000     14.82539000   
   340       C          3.07931000      7.16276000     22.32911000   
   341       C         18.86332000      6.24814000     14.82539000   
   342       C         -7.09992000     14.12667000     22.32911000   
   343       C          7.74279000      0.91463000     14.82539000   
   344       C          4.02061000     19.46018000     22.32911000   
   345       C          8.13839000      5.22206000      4.27500000   
   346       C          3.62501000     15.15274000     32.87950000   
   347       C         14.93517000      4.43702000      4.27500000   
   348       C         -3.17177000     15.93778000     32.87950000   
   349       C         12.21664000     10.71572000      4.27500000   
   350       C         -0.45324000      9.65908000     32.87950000   
   351       C          3.62501000     15.15274000      4.27500000   
   352       C          8.13839000      5.22206000     32.87950000   
   353       C         -3.17177000     15.93778000      4.27500000   
   354       C         14.93517000      4.43702000     32.87950000   
   355       C         -0.45324000      9.65908000      4.27500000   
   356       C         12.21664000     10.71572000     32.87950000   
   357       C          0.45324000      9.65908000     14.30225000   
   358       C         11.31016000     10.71572000     22.85225000   
   359       C         -3.62501000     15.15274000     14.30225000   
   360       C         15.38841000      5.22206000     22.85225000   
   361       C          3.17177000     15.93778000     14.30225000   
   362       C          8.59163000      4.43702000     22.85225000   
   363       C         11.31016000     10.71572000     14.30225000   
   364       C          0.45324000      9.65908000     22.85225000   
   365       C         15.38841000      5.22206000     14.30225000   
   366       C         -3.62501000     15.15274000     22.85225000   
   367       C          8.59163000      4.43702000     14.30225000   
   368       C          3.17177000     15.93778000     22.85225000   
   369       C          8.96983000      4.31416000      4.93375000   
   370       C          2.79357000     16.06064000     32.22075000   
   371       C         15.30571000      5.61102000      4.93375000   
   372       C         -3.54231000     14.76379000     32.22075000   
   373       C         11.01466000     10.44963000      4.93375000   
   374       C          0.74874000      9.92518000     32.22075000   
   375       C          2.79357000     16.06064000      4.93375000   
   376       C          8.96983000      4.31416000     32.22075000   
   377       C         -3.54231000     14.76379000      4.93375000   
   378       C         15.30571000      5.61102000     32.22075000   
   379       C          0.74874000      9.92518000      4.93375000   
   380       C         11.01466000     10.44963000     32.22075000   
   381       C         -0.74874000      9.92518000     13.64350000   
   382       C         12.51214000     10.44963000     23.51100000   
   383       C         -2.79357000     16.06064000     13.64350000   
   384       C         14.55697000      4.31416000     23.51100000   
   385       C          3.54231000     14.76379000     13.64350000   
   386       C          8.22109000      5.61102000     23.51100000   
   387       C         12.51214000     10.44963000     13.64350000   
   388       C         -0.74874000      9.92518000     23.51100000   
   389       C         14.55697000      4.31416000     13.64350000   
   390       C         -2.79357000     16.06064000     23.51100000   
   391       C          8.22109000      5.61102000     13.64350000   
   392       C          3.54231000     14.76379000     23.51100000   
   393       C          8.43706000      3.37998000      5.83920000   
   394       C          3.32634000     16.99483000     31.31530000   
   395       C         16.38112000      5.61672000      5.83920000   
   396       C         -4.61772000     14.75808000     31.31530000   
   397       C         10.47201000     11.37811000      5.83920000   
   398       C          1.29139000      8.99670000     31.31530000   
   399       C          3.32634000     16.99483000      5.83920000   
   400       C          8.43706000      3.37998000     31.31530000   
   401       C         -4.61772000     14.75808000      5.83920000   
   402       C         16.38112000      5.61672000     31.31530000   
   403       C          1.29139000      8.99670000      5.83920000   
   404       C         10.47201000     11.37811000     31.31530000   
   405       C         -1.29139000      8.99670000     12.73805000   
   406       C         13.05479000     11.37811000     24.41645000   
   407       C         -3.32634000     16.99483000     12.73805000   
   408       C         15.08974000      3.37998000     24.41645000   
   409       C          4.61772000     14.75808000     12.73805000   
   410       C          7.14568000      5.61672000     24.41645000   
   411       C         13.05479000     11.37811000     12.73805000   
   412       C         -1.29139000      8.99670000     24.41645000   
   413       C         15.08974000      3.37998000     12.73805000   
   414       C         -3.32634000     16.99483000     24.41645000   
   415       C          7.14568000      5.61672000     12.73805000   
   416       C          4.61772000     14.75808000     24.41645000   
   417       C          7.04745000      3.37366000      6.06064000   
   418       C          4.71595000     17.00115000     31.09386000   
   419       C         17.08140000      4.41644000      6.06064000   
   420       C         -5.31800000     15.95836000     31.09386000   
   421       C         11.16135000     12.58470000      6.06064000   
   422       C          0.60205000      7.79010000     31.09386000   
   423       C          4.71595000     17.00115000      6.06064000   
   424       C          7.04745000      3.37366000     31.09386000   
   425       C         -5.31800000     15.95836000      6.06064000   
   426       C         17.08140000      4.41644000     31.09386000   
   427       C          0.60205000      7.79010000      6.06064000   
   428       C         11.16135000     12.58470000     31.09386000   
   429       C         -0.60205000      7.79010000     12.51661000   
   430       C         12.36545000     12.58470000     24.63789000   
   431       C         -4.71595000     17.00115000     12.51661000   
   432       C         16.47935000      3.37366000     24.63789000   
   433       C          5.31800000     15.95836000     12.51661000   
   434       C          6.44540000      4.41644000     24.63789000   
   435       C         12.36545000     12.58470000     12.51661000   
   436       C         -0.60205000      7.79010000     24.63789000   
   437       C         16.47935000      3.37366000     12.51661000   
   438       C         -4.71595000     17.00115000     24.63789000   
   439       C          6.44540000      4.41644000     12.51661000   
   440       C          5.31800000     15.95836000     24.63789000   
   441       C          6.21472000      4.28095000      5.39929000   
   442       C          5.54868000     16.09386000     31.75521000   
   443       C         16.71203000      3.24163000      5.39929000   
   444       C         -4.94863000     17.13317000     31.75521000   
   445       C         12.36345000     12.85222000      5.39929000   
   446       C         -0.60005000      7.52258000     31.75521000   
   447       C          5.54868000     16.09386000      5.39929000   
   448       C          6.21472000      4.28095000     31.75521000   
   449       C         -4.94863000     17.13317000      5.39929000   
   450       C         16.71203000      3.24163000     31.75521000   
   451       C         -0.60005000      7.52258000      5.39929000   
   452       C         12.36345000     12.85222000     31.75521000   
   453       C          0.60005000      7.52258000     13.17796000   
   454       C         11.16335000     12.85222000     23.97654000   
   455       C         -5.54868000     16.09386000     13.17796000   
   456       C         17.31208000      4.28095000     23.97654000   
   457       C          4.94863000     17.13317000     13.17796000   
   458       C          6.81477000      3.24163000     23.97654000   
   459       C         11.16335000     12.85222000     13.17796000   
   460       C          0.60005000      7.52258000     23.97654000   
   461       C         17.31208000      4.28095000     13.17796000   
   462       C         -5.54868000     16.09386000     23.97654000   
   463       C          6.81477000      3.24163000     13.17796000   
   464       C          4.94863000     17.13317000     23.97654000   
   465       C          6.75737000      5.21514000      4.49607000   
   466       C          5.00603000     15.15967000     32.65843000   
   467       C         15.63168000      3.24448000      4.49607000   
   468       C         -3.86828000     17.13032000     32.65843000   
   469       C         12.90116000     11.91519000      4.49607000   
   470       C         -1.13776000      8.45962000     32.65843000   
   471       C          5.00603000     15.15967000      4.49607000   
   472       C          6.75737000      5.21514000     32.65843000   
   473       C         -3.86828000     17.13032000      4.49607000   
   474       C         15.63168000      3.24448000     32.65843000   
   475       C         -1.13776000      8.45962000      4.49607000   
   476       C         12.90116000     11.91519000     32.65843000   
   477       C          1.13776000      8.45962000     14.08118000   
   478       C         10.62564000     11.91519000     23.07332000   
   479       C         -5.00603000     15.15967000     14.08118000   
   480       C         16.76943000      5.21514000     23.07332000   
   481       C          3.86828000     17.13032000     14.08118000   
   482       C          7.89512000      3.24448000     23.07332000   
   483       C         10.62564000     11.91519000     14.08118000   
   484       C          1.13776000      8.45962000     23.07332000   
   485       C         16.76943000      5.21514000     14.08118000   
   486       C         -5.00603000     15.15967000     23.07332000   
   487       C          7.89512000      3.24448000     14.08118000   
   488       C          3.86828000     17.13032000     23.07332000   
   489       C          2.60195000      7.28583000      2.81817000   
   490       C          9.16145000     13.08898000     34.33633000   
   491       C          4.15272000     18.98524000      2.81817000   
   492       C          7.61068000      1.38956000     34.33633000   
   493       C         -6.75466000     14.47854000      2.81817000   
   494       C         18.51806000      5.89627000     34.33633000   
   495       C          9.16145000     13.08898000      2.81817000   
   496       C          2.60195000      7.28583000     34.33633000   
   497       C          7.61068000      1.38956000      2.81817000   
   498       C          4.15272000     18.98524000     34.33633000   
   499       C         18.51806000      5.89627000      2.81817000   
   500       C         -6.75466000     14.47854000     34.33633000   
   501       C          5.00874000      5.89627000     15.75908000   
   502       C          6.75466000     14.47854000     21.39542000   
   503       C         14.36535000     13.08898000     15.75908000   
   504       C         -2.60195000      7.28583000     21.39542000   
   505       C         15.91612000      1.38956000     15.75908000   
   506       C         -4.15272000     18.98524000     21.39542000   
   507       C          6.75466000     14.47854000     15.75908000   
   508       C          5.00874000      5.89627000     21.39542000   
   509       C         -2.60195000      7.28583000     15.75908000   
   510       C         14.36535000     13.08898000     21.39542000   
   511       C         -4.15272000     18.98524000     15.75908000   
   512       C         15.91612000      1.38956000     21.39542000   
   513       C          1.95837000      8.27258000      2.06579000   
   514       C          9.80503000     12.10223000     35.08871000   
   515       C          3.61995000     17.93452000      2.06579000   
   516       C          8.14345000      2.44029000     35.08871000   
   517       C         -5.57832000     14.54252000      2.06579000   
   518       C         17.34172000      5.83229000     35.08871000   
   519       C          9.80503000     12.10223000      2.06579000   
   520       C          1.95837000      8.27258000     35.08871000   
   521       C          8.14345000      2.44029000      2.06579000   
   522       C          3.61995000     17.93452000     35.08871000   
   523       C         17.34172000      5.83229000      2.06579000   
   524       C         -5.57832000     14.54252000     35.08871000   
   525       C          6.18508000      5.83229000     16.51146000   
   526       C          5.57832000     14.54252000     20.64304000   
   527       C         13.72177000     12.10223000     16.51146000   
   528       C         -1.95837000      8.27258000     20.64304000   
   529       C         15.38335000      2.44029000     16.51146000   
   530       C         -3.61995000     17.93452000     20.64304000   
   531       C          5.57832000     14.54252000     16.51146000   
   532       C          6.18508000      5.83229000     20.64304000   
   533       C         -1.95837000      8.27258000     16.51146000   
   534       C         13.72177000     12.10223000     20.64304000   
   535       C         -3.61995000     17.93452000     16.51146000   
   536       C         15.38335000      2.44029000     20.64304000   
   537       C          2.70017000      9.30762000      1.48172000   
   538       C          9.06323000     11.06719000     35.67278000   
   539       C          2.35268000     18.05941000      1.48172000   
   540       C          9.41072000      2.31539000     35.67278000   
   541       C         -5.05285000     13.38258000      1.48172000   
   542       C         16.81625000      6.99223000     35.67278000   
   543       C          9.06323000     11.06719000      1.48172000   
   544       C          2.70017000      9.30762000     35.67278000   
   545       C          9.41072000      2.31539000      1.48172000   
   546       C          2.35268000     18.05941000     35.67278000   
   547       C         16.81625000      6.99223000      1.48172000   
   548       C         -5.05285000     13.38258000     35.67278000   
   549       C          6.71055000      6.99223000     17.09553000   
   550       C          5.05285000     13.38258000     20.05897000   
   551       C         14.46357000     11.06719000     17.09553000   
   552       C         -2.70017000      9.30762000     20.05897000   
   553       C         14.11608000      2.31539000     17.09553000   
   554       C         -2.35268000     18.05941000     20.05897000   
   555       C          5.05285000     13.38258000     17.09553000   
   556       C          6.71055000      6.99223000     20.05897000   
   557       C         -2.70017000      9.30762000     17.09553000   
   558       C         14.46357000     11.06719000     20.05897000   
   559       C         -2.35268000     18.05941000     17.09553000   
   560       C         14.11608000      2.31539000     20.05897000   
   561       C          4.08555000      9.36039000      1.67047000   
   562       C          7.67785000     11.01442000     35.48403000   
   563       C          1.61429000     19.23280000      1.67047000   
   564       C         10.14911000      1.14201000     35.48403000   
   565       C         -5.69984000     12.15642000      1.67047000   
   566       C         17.46324000      8.21838000     35.48403000   
   567       C          7.67785000     11.01442000      1.67047000   
   568       C          4.08555000      9.36039000     35.48403000   
   569       C         10.14911000      1.14201000      1.67047000   
   570       C          1.61429000     19.23280000     35.48403000   
   571       C         17.46324000      8.21838000      1.67047000   
   572       C         -5.69984000     12.15642000     35.48403000   
   573       C          6.06356000      8.21838000     16.90678000   
   574       C          5.69984000     12.15642000     20.24772000   
   575       C         15.84895000     11.01442000     16.90678000   
   576       C         -4.08555000      9.36039000     20.24772000   
   577       C         13.37769000      1.14201000     16.90678000   
   578       C         -1.61429000     19.23280000     20.24772000   
   579       C          5.69984000     12.15642000     16.90678000   
   580       C          6.06356000      8.21838000     20.24772000   
   581       C         -4.08555000      9.36039000     16.90678000   
   582       C         15.84895000     11.01442000     20.24772000   
   583       C         -1.61429000     19.23280000     16.90678000   
   584       C         13.37769000      1.14201000     20.24772000   
   585       C          4.73206000      8.37099000      2.41281000   
   586       C          7.03134000     12.00382000     34.74169000   
   587       C          2.14788000     20.28740000      2.41281000   
   588       C          9.61552000      0.08741000     34.74169000   
   589       C         -6.87994000     12.09123000      2.41281000   
   590       C         18.64334000      8.28358000     34.74169000   
   591       C          7.03134000     12.00382000      2.41281000   
   592       C          4.73206000      8.37099000     34.74169000   
   593       C          9.61552000      0.08741000      2.41281000   
   594       C          2.14788000     20.28740000     34.74169000   
   595       C         18.64334000      8.28358000      2.41281000   
   596       C         -6.87994000     12.09123000     34.74169000   
   597       C          4.88346000      8.28358000     16.16444000   
   598       C          6.87994000     12.09123000     20.99006000   
   599       C         16.49546000     12.00382000     16.16444000   
   600       C         -4.73206000      8.37099000     20.99006000   
   601       C         13.91128000      0.08741000     16.16444000   
   602       C         -2.14788000     20.28740000     20.99006000   
   603       C          6.87994000     12.09123000     16.16444000   
   604       C          4.88346000      8.28358000     20.99006000   
   605       C         -4.73206000      8.37099000     16.16444000   
   606       C         16.49546000     12.00382000     20.99006000   
   607       C         -2.14788000     20.28740000     16.16444000   
   608       C         13.91128000      0.08741000     20.99006000   
   609       C          3.99532000      7.31945000      2.98834000   
   610       C          7.76808000     13.05536000     34.16616000   
   611       C          3.42691000     20.17513000      2.98834000   
   612       C          8.33649000      0.19967000     34.16616000   
   613       C         -7.42223000     13.25503000      2.98834000   
   614       C         19.18563000      7.11977000     34.16616000   
   615       C          7.76808000     13.05536000      2.98834000   
   616       C          3.99532000      7.31945000     34.16616000   
   617       C          8.33649000      0.19967000      2.98834000   
   618       C          3.42691000     20.17513000     34.16616000   
   619       C         19.18563000      7.11977000      2.98834000   
   620       C         -7.42223000     13.25503000     34.16616000   
   621       C          4.34117000      7.11977000     15.58891000   
   622       C          7.42223000     13.25503000     21.56559000   
   623       C         15.75872000     13.05536000     15.58891000   
   624       C         -3.99532000      7.31945000     21.56559000   
   625       C         15.19031000      0.19967000     15.58891000   
   626       C         -3.42691000     20.17513000     21.56559000   
   627       C          7.42223000     13.25503000     15.58891000   
   628       C          4.34117000      7.11977000     21.56559000   
   629       C         -3.99532000      7.31945000     15.58891000   
   630       C         15.75872000     13.05536000     21.56559000   
   631       C         -3.42691000     20.17513000     15.58891000   
   632       C         15.19031000      0.19967000     21.56559000   
   633       C          0.73451000     12.40377000      0.70816000   
   634       C         11.02889000      7.97103000     36.44634000   
   635       C          0.65416000     14.80902000      0.70816000   
   636       C         11.10924000      5.56579000     36.44634000   
   637       C         -1.38867000     13.53682000      0.70816000   
   638       C         13.15207000      6.83799000     36.44634000   
   639       C         11.02889000      7.97103000      0.70816000   
   640       C          0.73451000     12.40377000     36.44634000   
   641       C         11.10924000      5.56579000      0.70816000   
   642       C          0.65416000     14.80902000     36.44634000   
   643       C         13.15207000      6.83799000      0.70816000   
   644       C         -1.38867000     13.53682000     36.44634000   
   645       C         10.37473000      6.83799000     17.86909000   
   646       C          1.38867000     13.53682000     19.28541000   
   647       C         12.49791000      7.97103000     17.86909000   
   648       C         -0.73451000     12.40377000     19.28541000   
   649       C         12.41756000      5.56579000     17.86909000   
   650       C         -0.65416000     14.80902000     19.28541000   
   651       C          1.38867000     13.53682000     17.86909000   
   652       C         10.37473000      6.83799000     19.28541000   
   653       C         -0.73451000     12.40377000     17.86909000   
   654       C         12.49791000      7.97103000     19.28541000   
   655       C         -0.65416000     14.80902000     17.86909000   
   656       C         12.41756000      5.56579000     19.28541000   
   657       C          2.02342000     10.36283000      0.71002000   
   658       C          9.73998000     10.01198000     36.44448000   
   659       C          1.77721000     16.94573000      0.71002000   
   660       C          9.98619000      3.42908000     36.44448000   
   661       C         -3.80064000     13.44106000      0.71002000   
   662       C         15.56404000      6.93375000     36.44448000   
   663       C          9.73998000     10.01198000      0.71002000   
   664       C          2.02342000     10.36283000     36.44448000   
   665       C          9.98619000      3.42908000      0.71002000   
   666       C          1.77721000     16.94573000     36.44448000   
   667       C         15.56404000      6.93375000      0.71002000   
   668       C         -3.80064000     13.44106000     36.44448000   
   669       C          7.96276000      6.93375000     17.86723000   
   670       C          3.80064000     13.44106000     19.28727000   
   671       C         13.78682000     10.01198000     17.86723000   
   672       C         -2.02342000     10.36283000     19.28727000   
   673       C         13.54061000      3.42908000     17.86723000   
   674       C         -1.77721000     16.94573000     19.28727000   
   675       C          3.80064000     13.44106000     17.86723000   
   676       C          7.96276000      6.93375000     19.28727000   
   677       C         -2.02342000     10.36283000     17.86723000   
   678       C         13.78682000     10.01198000     19.28727000   
   679       C         -1.77721000     16.94573000     17.86723000   
   680       C         13.54061000      3.42908000     19.28727000   
   681       C          8.90489000      1.17603000      6.96573000   
   682       C          2.85851000     19.19877000     30.18877000   
   683       C         18.05588000      7.12385000      6.96573000   
   684       C         -6.29248000     13.25096000     30.18877000   
   685       C          8.32943000     12.07493000      6.96573000   
   686       C          3.43397000      8.29988000     30.18877000   
   687       C          2.85851000     19.19877000      6.96573000   
   688       C          8.90489000      1.17603000     30.18877000   
   689       C         -6.29248000     13.25096000      6.96573000   
   690       C         18.05588000      7.12385000     30.18877000   
   691       C          3.43397000      8.29988000      6.96573000   
   692       C          8.32943000     12.07493000     30.18877000   
   693       C         -3.43397000      8.29988000     11.61152000   
   694       C         15.19737000     12.07493000     25.54298000   
   695       C         -2.85851000     19.19877000     11.61152000   
   696       C         14.62191000      1.17603000     25.54298000   
   697       C          6.29248000     13.25096000     11.61152000   
   698       C          5.47092000      7.12385000     25.54298000   
   699       C         15.19737000     12.07493000     11.61152000   
   700       C         -3.43397000      8.29988000     25.54298000   
   701       C         14.62191000      1.17603000     11.61152000   
   702       C         -2.85851000     19.19877000     25.54298000   
   703       C          5.47092000      7.12385000     11.61152000   
   704       C          6.29248000     13.25096000     25.54298000   
   705       C          9.69022000      0.37693000      7.80170000   
   706       C          2.07318000     19.99787000     29.35280000   
   707       C         18.35526000      8.20351000      7.80170000   
   708       C         -6.59186000     12.17130000     29.35280000   
   709       C          7.24473000     11.79436000      7.80170000   
   710       C          4.51867000      8.58044000     29.35280000   
   711       C          2.07318000     19.99787000      7.80170000   
   712       C          9.69022000      0.37693000     29.35280000   
   713       C         -6.59186000     12.17130000      7.80170000   
   714       C         18.35526000      8.20351000     29.35280000   
   715       C          4.51867000      8.58044000      7.80170000   
   716       C          7.24473000     11.79436000     29.35280000   
   717       C         -4.51867000      8.58044000     10.77555000   
   718       C         16.28207000     11.79436000     26.37895000   
   719       C         -2.07318000     19.99787000     10.77555000   
   720       C         13.83658000      0.37693000     26.37895000   
   721       C          6.59186000     12.17130000     10.77555000   
   722       C          5.17154000      8.20351000     26.37895000   
   723       C         16.28207000     11.79436000     10.77555000   
   724       C         -4.51867000      8.58044000     26.37895000   
   725       C         13.83658000      0.37693000     10.77555000   
   726       C         -2.07318000     19.99787000     26.37895000   
   727       C          5.17154000      8.20351000     10.77555000   
   728       C          6.59186000     12.17130000     26.37895000   
   729       C         10.90926000      0.85758000      8.32669000   
   730       C          0.85414000     19.51723000     28.82781000   
   731       C         17.32949000      9.01891000      8.32669000   
   732       C         -5.56609000     11.35590000     28.82781000   
   733       C          7.05145000     10.49832000      8.32669000   
   734       C          4.71195000      9.87648000     28.82781000   
   735       C          0.85414000     19.51723000      8.32669000   
   736       C         10.90926000      0.85758000     28.82781000   
   737       C         -5.56609000     11.35590000      8.32669000   
   738       C         17.32949000      9.01891000     28.82781000   
   739       C          4.71195000      9.87648000      8.32669000   
   740       C          7.05145000     10.49832000     28.82781000   
   741       C         -4.71195000      9.87648000     10.25056000   
   742       C         16.47535000     10.49832000     26.90394000   
   743       C         -0.85414000     19.51723000     10.25056000   
   744       C         12.61754000      0.85758000     26.90394000   
   745       C          5.56609000     11.35590000     10.25056000   
   746       C          6.19731000      9.01891000     26.90394000   
   747       C         16.47535000     10.49832000     10.25056000   
   748       C         -4.71195000      9.87648000     26.90394000   
   749       C         12.61754000      0.85758000     10.25056000   
   750       C         -0.85414000     19.51723000     26.90394000   
   751       C          6.19731000      9.01891000     10.25056000   
   752       C          5.56609000     11.35590000     26.90394000   
   753       C         11.39721000      2.08251000      7.82511000   
   754       C          0.36619000     18.29230000     29.32939000   
   755       C         16.02469000      8.82901000      7.82511000   
   756       C         -4.26129000     11.54579000     29.32939000   
   757       C          7.86830000      9.46328000      7.82511000   
   758       C          3.89510000     10.91152000     29.32939000   
   759       C          0.36619000     18.29230000      7.82511000   
   760       C         11.39721000      2.08251000     29.32939000   
   761       C         -4.26129000     11.54579000      7.82511000   
   762       C         16.02469000      8.82901000     29.32939000   
   763       C          3.89510000     10.91152000      7.82511000   
   764       C          7.86830000      9.46328000     29.32939000   
   765       C         -3.89510000     10.91152000     10.75214000   
   766       C         15.65850000      9.46328000     26.40236000   
   767       C         -0.36619000     18.29230000     10.75214000   
   768       C         12.12959000      2.08251000     26.40236000   
   769       C          4.26129000     11.54579000     10.75214000   
   770       C          7.50211000      8.82901000     26.40236000   
   771       C         15.65850000      9.46328000     10.75214000   
   772       C         -3.89510000     10.91152000     26.40236000   
   773       C         12.12959000      2.08251000     10.75214000   
   774       C         -0.36619000     18.29230000     26.40236000   
   775       C          7.50211000      8.82901000     10.75214000   
   776       C          4.26129000     11.54579000     26.40236000   
   777       C         10.60423000      2.89200000      7.01365000   
   778       C          1.15917000     17.48281000     30.14085000   
   779       C         15.72014000      7.73754000      7.01365000   
   780       C         -3.95674000     12.63727000     30.14085000   
   781       C          8.96583000      9.74527000      7.01365000   
   782       C          2.79757000     10.62954000     30.14085000   
   783       C          1.15917000     17.48281000      7.01365000   
   784       C         10.60423000      2.89200000     30.14085000   
   785       C         -3.95674000     12.63727000      7.01365000   
   786       C         15.72014000      7.73754000     30.14085000   
   787       C          2.79757000     10.62954000      7.01365000   
   788       C          8.96583000      9.74527000     30.14085000   
   789       C         -2.79757000     10.62954000     11.56360000   
   790       C         14.56097000      9.74527000     25.59090000   
   791       C         -1.15917000     17.48281000     11.56360000   
   792       C         12.92257000      2.89200000     25.59090000   
   793       C          3.95674000     12.63727000     11.56360000   
   794       C          7.80666000      7.73754000     25.59090000   
   795       C         14.56097000      9.74527000     11.56360000   
   796       C         -2.79757000     10.62954000     25.59090000   
   797       C         12.92257000      2.89200000     11.56360000   
   798       C         -1.15917000     17.48281000     25.59090000   
   799       C          7.80666000      7.73754000     11.56360000   
   800       C          3.95674000     12.63727000     25.59090000   
   801       C          9.32955000      2.46617000      6.60384000   
   802       C          2.43385000     17.90864000     30.55066000   
   803       C         16.72626000      6.84655000      6.60384000   
   804       C         -4.96286000     13.52826000     30.55066000   
   805       C          9.23439000     11.06209000      6.60384000   
   806       C          2.52901000      9.31271000     30.55066000   
   807       C          2.43385000     17.90864000      6.60384000   
   808       C          9.32955000      2.46617000     30.55066000   
   809       C         -4.96286000     13.52826000      6.60384000   
   810       C         16.72626000      6.84655000     30.55066000   
   811       C          2.52901000      9.31271000      6.60384000   
   812       C          9.23439000     11.06209000     30.55066000   
   813       C         -2.52901000      9.31271000     11.97341000   
   814       C         14.29241000     11.06209000     25.18109000   
   815       C         -2.43385000     17.90864000     11.97341000   
   816       C         14.19725000      2.46617000     25.18109000   
   817       C          4.96286000     13.52826000     11.97341000   
   818       C          6.80054000      6.84655000     25.18109000   
   819       C         14.29241000     11.06209000     11.97341000   
   820       C         -2.52901000      9.31271000     25.18109000   
   821       C         14.19725000      2.46617000     11.97341000   
   822       C         -2.43385000     17.90864000     25.18109000   
   823       C          6.80054000      6.84655000     11.97341000   
   824       C          4.96286000     13.52826000     25.18109000   
   825       C          2.58607000     13.48486000     19.98986000   
   826       C          9.17733000      6.88994000     17.16464000   
   827       C         -1.20787000     15.87197000     19.98986000   
   828       C         12.97127000      4.50283000     17.16464000   
   829       C         -1.37820000     11.39278000     19.98986000   
   830       C         13.14160000      8.98203000     17.16464000   
   831       C          9.17733000      6.88994000     19.98986000   
   832       C          2.58607000     13.48486000     17.16464000   
   833       C         12.97127000      4.50283000     19.98986000   
   834       C         -1.20787000     15.87197000     17.16464000   
   835       C         13.14160000      8.98203000     19.98986000   
   836       C         -1.37820000     11.39278000     17.16464000   
   837       C         10.38520000      8.98203000     35.74189000   
   838       C          1.37820000     11.39278000      1.41261000   
   839       C         14.34947000      6.88994000     35.74189000   
   840       C         -2.58607000     13.48486000      1.41261000   
   841       C         10.55553000      4.50283000     35.74189000   
   842       C          1.20787000     15.87197000      1.41261000   
   843       C          1.37820000     11.39278000     35.74189000   
   844       C         10.38520000      8.98203000      1.41261000   
   845       C         -2.58607000     13.48486000     35.74189000   
   846       C         14.34947000      6.88994000      1.41261000   
   847       C          1.20787000     15.87197000     35.74189000   
   848       C         10.55553000      4.50283000      1.41261000   
   849       C         -5.88170000     10.18740000      9.28862000   
   850       C         -5.88170000     10.18740000     27.86587000   
   851       C          5.88170000     10.18740000      9.28862000   
   852       C          5.88170000     10.18740000     27.86587000   
   853       C         11.76340000      0.00000000      9.28862000   
   854       C         11.76340000      0.00000000     27.86587000   
   855       C         -0.00001000     13.58321000     19.91370000   
   856       C         11.76341000      6.79160000     17.24080000   
   857       C         11.76341000      6.79160000     19.91370000   
   858       C         -0.00001000     13.58321000     17.24080000   
   859       C         11.76341000      6.79160000     35.81805000   
   860       C         -0.00001000     13.58321000      1.33645000   
   861       C         -0.00001000     13.58321000     35.81805000   
   862       C         11.76341000      6.79160000      1.33645000   
   863       N          5.96063000      6.19414000      3.80982000   
   864       N          5.80277000     14.18066000     33.34468000   
   865       N         15.18220000      2.06499000      3.80982000   
   866       N         -3.41880000     18.30982000     33.34468000   
   867       N         14.14737000     12.11567000      3.80982000   
   868       N         -2.38397000      8.25913000     33.34468000   
   869       N          5.80277000     14.18066000      3.80982000   
   870       N          5.96063000      6.19414000     33.34468000   
   871       N         -3.41880000     18.30982000      3.80982000   
   872       N         15.18220000      2.06499000     33.34468000   
   873       N         -2.38397000      8.25913000      3.80982000   
   874       N         14.14737000     12.11567000     33.34468000   
   875       N          2.38397000      8.25913000     14.76743000   
   876       N          9.37943000     12.11567000     22.38707000   
   877       N         -5.80277000     14.18066000     14.76743000   
   878       N         17.56617000      6.19414000     22.38707000   
   879       N          3.41880000     18.30982000     14.76743000   
   880       N          8.34460000      2.06499000     22.38707000   
   881       N          9.37943000     12.11567000     14.76743000   
   882       N          2.38397000      8.25913000     22.38707000   
   883       N         17.56617000      6.19414000     14.76743000   
   884       N         -5.80277000     14.18066000     22.38707000   
   885       N          8.34460000      2.06499000     14.76743000   
   886       N          3.41880000     18.30982000     22.38707000   
   887       F         10.03159000      4.34554000      4.73423000   
   888       F          1.73181000     16.02927000     32.42027000   
   889       F         14.74766000      6.51484000      4.73423000   
   890       F         -2.98426000     13.85996000     32.42027000   
   891       F         10.51095000      9.51442000      4.73423000   
   892       F          1.25245000     10.86038000     32.42027000   
   893       F          1.73181000     16.02927000      4.73423000   
   894       F         10.03159000      4.34554000     32.42027000   
   895       F         -2.98426000     13.85996000      4.73423000   
   896       F         14.74766000      6.51484000     32.42027000   
   897       F          1.25245000     10.86038000      4.73423000   
   898       F         10.51095000      9.51442000     32.42027000   
   899       F         -1.25245000     10.86038000     13.84302000   
   900       F         13.01585000      9.51442000     23.31148000   
   901       F         -1.73181000     16.02927000     13.84302000   
   902       F         13.49521000      4.34554000     23.31148000   
   903       F          2.98426000     13.85996000     13.84302000   
   904       F          8.77914000      6.51484000     23.31148000   
   905       F         13.01585000      9.51442000     13.84302000   
   906       F         -1.25245000     10.86038000     23.31148000   
   907       F         13.49521000      4.34554000     13.84302000   
   908       F         -1.73181000     16.02927000     23.31148000   
   909       F          8.77914000      6.51484000     13.84302000   
   910       F          2.98426000     13.85996000     23.31148000   
   911      Tv         23.52680000      0.00000000      0.00000000   
   912      Tv        -11.76340000     20.37481000      0.00000000   
   913      Tv          0.00000000      0.00000000     37.15450000   
 

                   THE SYSTEM IS A SOLID


                UNIT CELL TRANSLATION VECTORS

              X                Y              Z
    T1 =    23.5268000      0.0000000      0.0000000
    T2 =   -11.7634000     20.3748100      0.0000000
    T3 =     0.0000000      0.0000000     37.1545000


          CARTESIAN COORDINATES 

    NO.       ATOM           X           Y           Z

     1         H          4.0501      5.4922      4.2211
     2         H          7.7133     14.8826     32.9334
     3         H         16.7453      0.7614      4.2211
     4         H         -4.9819     19.6134     32.9334
     5         H         14.4947     14.1212      4.2211
     6         H         -2.7313      6.2536     32.9334
     7         H          7.7133     14.8826      4.2211
     8         H          4.0501      5.4922     32.9334
     9         H         -4.9819     19.6134      4.2211
    10         H         16.7453      0.7614     32.9334
    11         H         -2.7313      6.2536      4.2211
    12         H         14.4947     14.1212     32.9334
    13         H          2.7313      6.2536     14.3561
    14         H          9.0321     14.1212     22.7984
    15         H         -7.7133     14.8826     14.3561
    16         H         19.4767      5.4922     22.7984
    17         H          4.9819     19.6134     14.3561
    18         H          6.7815      0.7614     22.7984
    19         H          9.0321     14.1212     14.3561
    20         H          2.7313      6.2536     22.7984
    21         H         19.4767      5.4922     14.3561
    22         H         -7.7133     14.8826     22.7984
    23         H          6.7815      0.7614     14.3561
    24         H          4.9819     19.6134     22.7984
    25         H          8.5726      5.9370      3.5865
    26         H          3.1908     14.4378     33.5680
    27         H         14.0989      4.4556      3.5865
    28         H         -2.3355     15.9192     33.5680
    29         H         12.6187      9.9822      3.5865
    30         H         -0.8553     10.3926     33.5680
    31         H          3.1908     14.4378      3.5865
    32         H          8.5726      5.9370     33.5680
    33         H         -2.3355     15.9192      3.5865
    34         H         14.0989      4.4556     33.5680
    35         H         -0.8553     10.3926      3.5865
    36         H         12.6187      9.9822     33.5680
    37         H          0.8553     10.3926     14.9907
    38         H         10.9081      9.9822     22.1638
    39         H         -3.1908     14.4378     14.9907
    40         H         14.9542      5.9370     22.1638
    41         H          2.3355     15.9192     14.9907
    42         H          9.4279      4.4556     22.1638
    43         H         10.9081      9.9822     14.9907
    44         H          0.8553     10.3926     22.1638
    45         H         14.9542      5.9370     14.9907
    46         H         -3.1908     14.4378     22.1638
    47         H          9.4279      4.4556     14.9907
    48         H          2.3355     15.9192     22.1638
    49         H          6.6042      2.6944      6.7777
    50         H          5.1592     17.6804     30.3768
    51         H         17.8913      4.3722      6.7777
    52         H         -6.1279     16.0026     30.3768
    53         H         10.7947     13.3082      6.7777
    54         H          0.9687      7.0666     30.3768
    55         H          5.1592     17.6804      6.7777
    56         H          6.6042      2.6944     30.3768
    57         H         -6.1279     16.0026      6.7777
    58         H         17.8913      4.3722     30.3768
    59         H          0.9687      7.0666      6.7777
    60         H         10.7947     13.3082     30.3768
    61         H         -0.9687      7.0666     11.7995
    62         H         12.7321     13.3082     25.3550
    63         H         -5.1592     17.6804     11.7995
    64         H         16.9226      2.6944     25.3550
    65         H          6.1279     16.0026     11.7995
    66         H          5.6355      4.3722     25.3550
    67         H         12.7321     13.3082     11.7995
    68         H         -0.9687      7.0666     25.3550
    69         H         16.9226      2.6944     11.7995
    70         H         -5.1592     17.6804     25.3550
    71         H          5.6355      4.3722     11.7995
    72         H          6.1279     16.0026     25.3550
    73         H          5.1597      4.2591      5.6278
    74         H          6.6037     16.1157     31.5267
    75         H         17.2584      2.3388      5.6278
    76         H         -5.4950     18.0360     31.5267
    77         H         12.8721     13.7768      5.6278
    78         H         -1.1087      6.5980     31.5267
    79         H          6.6037     16.1157      5.6278
    80         H          5.1597      4.2591     31.5267
    81         H         -5.4950     18.0360      5.6278
    82         H         17.2584      2.3388     31.5267
    83         H         -1.1087      6.5980      5.6278
    84         H         12.8721     13.7768     31.5267
    85         H          1.1087      6.5980     12.9495
    86         H         10.6547     13.7768     24.2050
    87         H         -6.6037     16.1157     12.9495
    88         H         18.3671      4.2591     24.2050
    89         H          5.4950     18.0360     12.9495
    90         H          6.2684      2.3388     24.2050
    91         H         10.6547     13.7768     12.9495
    92         H          1.1087      6.5980     24.2050
    93         H         18.3671      4.2591     12.9495
    94         H         -6.6037     16.1157     24.2050
    95         H          6.2684      2.3388     12.9495
    96         H          5.4950     18.0360     24.2050
    97         H          0.8838      8.2300      1.9369
    98         H         10.8796     12.1448     35.2176
    99         H          4.1941     17.0252      1.9369
   100         H          7.5693      3.3496     35.2176
   101         H         -5.0779     15.4944      1.9369
   102         H         16.8413      4.8804     35.2176
   103         H         10.8796     12.1448      1.9369
   104         H          0.8838      8.2300     35.2176
   105         H          7.5693      3.3496      1.9369
   106         H          4.1941     17.0252     35.2176
   107         H         16.8413      4.8804      1.9369
   108         H         -5.0779     15.4944     35.2176
   109         H          6.6855      4.8804     16.6404
   110         H          5.0779     15.4944     20.5141
   111         H         12.6472     12.1448     16.6404
   112         H         -0.8838      8.2300     20.5141
   113         H         15.9575      3.3496     16.6404
   114         H         -4.1941     17.0252     20.5141
   115         H          5.0779     15.4944     16.6404
   116         H          6.6855      4.8804     20.5141
   117         H         -0.8838      8.2300     16.6404
   118         H         12.6472     12.1448     20.5141
   119         H         -4.1941     17.0252     16.6404
   120         H         15.9575      3.3496     20.5141
   121         H          4.6612     10.1697      1.2421
   122         H          7.1021     10.2051     35.9124
   123         H          0.6256     19.3267      1.2421
   124         H         11.1378      1.0481     35.9124
   125         H         -5.2868     11.2532      1.2421
   126         H         17.0502      9.1216     35.9124
   127         H          7.1021     10.2051      1.2421
   128         H          4.6612     10.1697     35.9124
   129         H         11.1378      1.0481      1.2421
   130         H          0.6256     19.3267     35.9124
   131         H         17.0502      9.1216      1.2421
   132         H         -5.2868     11.2532     35.9124
   133         H          6.4766      9.1216     17.3352
   134         H          5.2868     11.2532     19.8193
   135         H         16.4246     10.2051     17.3352
   136         H         -4.6612     10.1697     19.8193
   137         H         12.3890      1.0481     17.3352
   138         H         -0.6256     19.3267     19.8193
   139         H          5.2868     11.2532     17.3352
   140         H          6.4766      9.1216     19.8193
   141         H         -4.6612     10.1697     17.3352
   142         H         16.4246     10.2051     19.8193
   143         H         -0.6256     19.3267     17.3352
   144         H         12.3890      1.0481     19.8193
   145         H          5.8061      8.4301      2.5373
   146         H          5.9573     11.9447     34.6172
   147         H         13.3231      0.8132      2.5373
   148         H         -1.5597     19.5617     34.6172
   149         H         16.1610     11.1316      2.5373
   150         H         -4.3976      9.2432     34.6172
   151         H          5.9573     11.9447      2.5373
   152         H          5.8061      8.4301     34.6172
   153         H         -1.5597     19.5617      2.5373
   154         H         13.3231      0.8132     34.6172
   155         H         -4.3976      9.2432      2.5373
   156         H         16.1610     11.1316     34.6172
   157         H          4.3976      9.2432     16.0400
   158         H          7.3658     11.1316     21.1145
   159         H         -5.9573     11.9447     16.0400
   160         H         17.7207      8.4301     21.1145
   161         H          1.5597     19.5617     16.0400
   162         H         10.2037      0.8132     21.1145
   163         H          7.3658     11.1316     16.0400
   164         H          4.3976      9.2432     21.1145
   165         H         17.7207      8.4301     16.0400
   166         H         -5.9573     11.9447     21.1145
   167         H         10.2037      0.8132     16.0400
   168         H          1.5597     19.5617     21.1145
   169         H          7.9610      0.7840      6.6087
   170         H          3.8024     19.5908     30.5458
   171         H         18.8673      6.5024      6.6087
   172         H         -7.1039     13.8724     30.5458
   173         H          8.4619     13.0884      6.6087
   174         H          3.3015      7.2864     30.5458
   175         H          3.8024     19.5908      6.6087
   176         H          7.9610      0.7840     30.5458
   177         H         -7.1039     13.8724      6.6087
   178         H         18.8673      6.5024     30.5458
   179         H          3.3015      7.2864      6.6087
   180         H          8.4619     13.0884     30.5458
   181         H         -3.3015      7.2864     11.9686
   182         H         15.0649     13.0884     25.1859
   183         H         -3.8024     19.5908     11.9686
   184         H         15.5658      0.7840     25.1859
   185         H          7.1039     13.8724     11.9686
   186         H          4.6595      6.5024     25.1859
   187         H         15.0649     13.0884     11.9686
   188         H         -3.3015      7.2864     25.1859
   189         H         15.5658      0.7840     11.9686
   190         H         -3.8024     19.5908     25.1859
   191         H          4.6595      6.5024     11.9686
   192         H          7.1039     13.8724     25.1859
   193         H         -2.4335     19.7634      8.0551
   194         H         14.1969      0.6115     29.0994
   195         H         -4.1354      8.3857      8.0551
   196         H         15.8988     11.9892     29.0994
   197         H          6.5689     12.6006      8.0551
   198         H          5.1945      7.7742     29.0994
   199         H         14.1969      0.6115      8.0551
   200         H         -2.4335     19.7634     29.0994
   201         H         15.8988     11.9892      8.0551
   202         H         -4.1354      8.3857     29.0994
   203         H          5.1945      7.7742      8.0551
   204         H          6.5689     12.6006     29.0994
   205         H         18.3323      7.7742     10.5221
   206         H         -6.5689     12.6006     26.6323
   207         H          9.3299      0.6115     10.5221
   208         H          2.4335     19.7634     26.6323
   209         H          7.6280     11.9892     10.5221
   210         H          4.1354      8.3857     26.6323
   211         H         -6.5689     12.6006     10.5221
   212         H         18.3323      7.7742     26.6323
   213         H          2.4335     19.7634     10.5221
   214         H          9.3299      0.6115     26.6323
   215         H          4.1354      8.3857     10.5221
   216         H          7.6280     11.9892     26.6323
   217         H         12.3816      2.4415      8.0952
   218         H         -0.6182     17.9333     29.0593
   219         H         15.2216      9.5020      8.0952
   220         H         -3.4582     10.8728     29.0593
   221         H          7.6870      8.4313      8.0952
   222         H          4.0764     11.9435     29.0593
   223         H         -0.6182     17.9333      8.0952
   224         H         12.3816      2.4415     29.0593
   225         H         -3.4582     10.8728      8.0952
   226         H         15.2216      9.5020     29.0593
   227         H          4.0764     11.9435      8.0952
   228         H          7.6870      8.4313     29.0593
   229         H         -4.0764     11.9435     10.4820
   230         H         15.8398      8.4313     26.6725
[...]
  515  C   1.21708   0.94861   0.98687   0.97429
  516  C   1.21708   0.94861   0.98687   0.97429
  517  C   1.21708   0.95755   0.97793   0.97429
  518  C   1.21708   0.95755   0.97793   0.97429
  519  C   1.21708   0.99706   0.93842   0.97429
  520  C   1.21708   0.99706   0.93842   0.97429
  521  C   1.21708   0.94861   0.98687   0.97429
  522  C   1.21708   0.94861   0.98687   0.97429
  523  C   1.21708   0.95755   0.97793   0.97429
  524  C   1.21708   0.95755   0.97793   0.97429
  525  C   1.21708   0.95755   0.97793   0.97429
  526  C   1.21708   0.95755   0.97793   0.97429
  527  C   1.21708   0.99706   0.93842   0.97429
  528  C   1.21708   0.99706   0.93842   0.97429
  529  C   1.21708   0.94861   0.98687   0.97429
  530  C   1.21708   0.94861   0.98687   0.97429
  531  C   1.21708   0.95755   0.97793   0.97429
  532  C   1.21708   0.95755   0.97793   0.97429
  533  C   1.21708   0.99706   0.93842   0.97429
  534  C   1.21708   0.99706   0.93842   0.97429
  535  C   1.21708   0.94861   0.98687   0.97429
  536  C   1.21708   0.94861   0.98687   0.97429
  537  C   1.18717   0.93068   0.93876   0.96302
  538  C   1.18717   0.93068   0.93876   0.96302
  539  C   1.18716   0.93816   0.93128   0.96302
  540  C   1.18716   0.93816   0.93128   0.96302
  541  C   1.18717   0.93532   0.93412   0.96302
  542  C   1.18716   0.93532   0.93412   0.96302
  543  C   1.18717   0.93068   0.93876   0.96302
  544  C   1.18717   0.93068   0.93876   0.96302
  545  C   1.18716   0.93816   0.93128   0.96302
  546  C   1.18716   0.93816   0.93128   0.96302
  547  C   1.18716   0.93532   0.93412   0.96302
  548  C   1.18717   0.93532   0.93412   0.96302
  549  C   1.18716   0.93532   0.93412   0.96302
  550  C   1.18717   0.93532   0.93412   0.96302
  551  C   1.18717   0.93068   0.93876   0.96302
  552  C   1.18717   0.93068   0.93876   0.96302
  553  C   1.18716   0.93816   0.93128   0.96302
  554  C   1.18716   0.93816   0.93128   0.96302
  555  C   1.18717   0.93532   0.93412   0.96302
  556  C   1.18716   0.93532   0.93412   0.96302
  557  C   1.18717   0.93068   0.93876   0.96302
  558  C   1.18717   0.93068   0.93876   0.96302
  559  C   1.18716   0.93816   0.93128   0.96302
  560  C   1.18716   0.93816   0.93128   0.96302
  561  C   1.21669   0.93046   0.98823   0.99295
  562  C   1.21669   0.93046   0.98823   0.99295
  563  C   1.21669   0.99418   0.92451   0.99295
  564  C   1.21669   0.99418   0.92451   0.99295
  565  C   1.21669   0.95339   0.96529   0.99295
  566  C   1.21669   0.95340   0.96530   0.99295
  567  C   1.21669   0.93046   0.98823   0.99295
  568  C   1.21669   0.93046   0.98823   0.99295
  569  C   1.21669   0.99418   0.92451   0.99295
  570  C   1.21669   0.99418   0.92451   0.99295
  571  C   1.21669   0.95340   0.96530   0.99295
  572  C   1.21669   0.95339   0.96529   0.99295
  573  C   1.21669   0.95340   0.96530   0.99295
  574  C   1.21669   0.95339   0.96529   0.99295
  575  C   1.21669   0.93046   0.98823   0.99295
  576  C   1.21669   0.93046   0.98823   0.99295
  577  C   1.21669   0.99418   0.92451   0.99295
  578  C   1.21669   0.99418   0.92451   0.99295
  579  C   1.21669   0.95339   0.96529   0.99295
  580  C   1.21669   0.95340   0.96530   0.99295
  581  C   1.21669   0.93046   0.98823   0.99295
  582  C   1.21669   0.93046   0.98823   0.99295
  583  C   1.21669   0.99418   0.92451   0.99295
  584  C   1.21669   0.99418   0.92451   0.99295
  585  C   1.21928   1.00290   0.91566   0.93460
  586  C   1.21928   1.00290   0.91566   0.93460
  587  C   1.21928   0.93691   0.98165   0.93460
  588  C   1.21928   0.93691   0.98165   0.93460
  589  C   1.21928   0.93803   0.98053   0.93460
  590  C   1.21928   0.93803   0.98053   0.93460
  591  C   1.21928   1.00290   0.91566   0.93460
  592  C   1.21928   1.00290   0.91566   0.93460
  593  C   1.21928   0.93691   0.98165   0.93460
  594  C   1.21928   0.93691   0.98165   0.93460
  595  C   1.21928   0.93803   0.98053   0.93460
  596  C   1.21928   0.93803   0.98053   0.93460
  597  C   1.21928   0.93803   0.98053   0.93460
  598  C   1.21928   0.93803   0.98053   0.93460
  599  C   1.21928   1.00290   0.91566   0.93460
  600  C   1.21928   1.00290   0.91566   0.93460
  601  C   1.21928   0.93691   0.98165   0.93460
  602  C   1.21928   0.93691   0.98165   0.93460
  603  C   1.21928   0.93803   0.98053   0.93460
  604  C   1.21928   0.93803   0.98053   0.93460
  605  C   1.21928   1.00290   0.91566   0.93460
  606  C   1.21928   1.00290   0.91566   0.93460
  607  C   1.21928   0.93691   0.98165   0.93460
  608  C   1.21928   0.93691   0.98165   0.93460
  609  C   1.18916   0.92322   0.95398   1.00388
  610  C   1.18916   0.92322   0.95398   1.00388
  611  C   1.18916   0.95256   0.92465   1.00388
  612  C   1.18916   0.95256   0.92465   1.00388
  613  C   1.18916   0.94003   0.93718   1.00388
  614  C   1.18916   0.94003   0.93718   1.00388
  615  C   1.18916   0.92322   0.95398   1.00388
  616  C   1.18916   0.92322   0.95398   1.00388
  617  C   1.18916   0.95256   0.92465   1.00388
  618  C   1.18916   0.95256   0.92465   1.00388
  619  C   1.18916   0.94003   0.93718   1.00388
  620  C   1.18916   0.94003   0.93718   1.00388
  621  C   1.18916   0.94003   0.93718   1.00388
  622  C   1.18916   0.94003   0.93718   1.00388
  623  C   1.18916   0.92322   0.95398   1.00388
  624  C   1.18916   0.92322   0.95398   1.00388
  625  C   1.18916   0.95256   0.92465   1.00388
  626  C   1.18916   0.95256   0.92465   1.00388
  627  C   1.18916   0.94003   0.93718   1.00388
  628  C   1.18916   0.94003   0.93718   1.00388
  629  C   1.18916   0.92322   0.95398   1.00388
  630  C   1.18916   0.92322   0.95398   1.00388
  631  C   1.18916   0.95256   0.92465   1.00388
  632  C   1.18916   0.95256   0.92465   1.00388
  633  C   1.20780   0.98160   0.94910   0.92852
  634  C   1.20780   0.98160   0.94910   0.92852
  635  C   1.20780   0.98574   0.94496   0.92852
  636  C   1.20780   0.98574   0.94496   0.92852
  637  C   1.20780   0.92871   1.00199   0.92852
  638  C   1.20780   0.92871   1.00199   0.92852
  639  C   1.20780   0.98160   0.94910   0.92852
  640  C   1.20780   0.98160   0.94910   0.92852
  641  C   1.20780   0.98574   0.94496   0.92852
  642  C   1.20780   0.98574   0.94496   0.92852
  643  C   1.20780   0.92871   1.00199   0.92852
  644  C   1.20780   0.92871   1.00199   0.92852
  645  C   1.20781   0.92871   1.00198   0.92852
  646  C   1.20781   0.92871   1.00198   0.92852
  647  C   1.20780   0.98160   0.94910   0.92852
  648  C   1.20780   0.98160   0.94910   0.92852
  649  C   1.20780   0.98574   0.94496   0.92852
  650  C   1.20780   0.98574   0.94496   0.92852
  651  C   1.20781   0.92871   1.00198   0.92852
  652  C   1.20781   0.92871   1.00198   0.92852
  653  C   1.20780   0.98160   0.94910   0.92852
  654  C   1.20780   0.98160   0.94910   0.92852
  655  C   1.20780   0.98574   0.94496   0.92852
  656  C   1.20780   0.98574   0.94496   0.92852
  657  C   1.18872   0.98380   0.94476   0.90986
  658  C   1.18872   0.98380   0.94476   0.90986
  659  C   1.18872   0.99024   0.93832   0.90986
  660  C   1.18872   0.99024   0.93832   0.90986
  661  C   1.18872   0.91880   1.00976   0.90986
  662  C   1.18872   0.91880   1.00976   0.90986
  663  C   1.18872   0.98380   0.94476   0.90986
  664  C   1.18872   0.98380   0.94476   0.90986
  665  C   1.18872   0.99024   0.93832   0.90986
  666  C   1.18872   0.99024   0.93832   0.90986
  667  C   1.18872   0.91880   1.00976   0.90986
  668  C   1.18872   0.91880   1.00976   0.90986
  669  C   1.18872   0.91880   1.00976   0.90986
  670  C   1.18872   0.91880   1.00976   0.90986
  671  C   1.18872   0.98380   0.94476   0.90986
  672  C   1.18872   0.98380   0.94476   0.90986
  673  C   1.18872   0.99024   0.93832   0.90986
  674  C   1.18872   0.99024   0.93832   0.90986
  675  C   1.18872   0.91880   1.00976   0.90986
  676  C   1.18872   0.91880   1.00976   0.90986
  677  C   1.18872   0.98380   0.94476   0.90986
  678  C   1.18872   0.98380   0.94476   0.90986
  679  C   1.18872   0.99024   0.93832   0.90986
  680  C   1.18872   0.99024   0.93832   0.90986
  681  C   1.21565   0.99174   0.93092   0.98265
  682  C   1.21565   0.99174   0.93092   0.98265
  683  C   1.21565   0.94839   0.97427   0.98265
  684  C   1.21565   0.94839   0.97427   0.98265
  685  C   1.21565   0.94386   0.97880   0.98265
  686  C   1.21565   0.94386   0.97880   0.98265
  687  C   1.21565   0.99174   0.93092   0.98265
  688  C   1.21565   0.99174   0.93092   0.98265
  689  C   1.21565   0.94839   0.97427   0.98265
  690  C   1.21565   0.94839   0.97427   0.98265
  691  C   1.21565   0.94386   0.97880   0.98265
  692  C   1.21565   0.94386   0.97880   0.98265
  693  C   1.21565   0.94386   0.97880   0.98265
  694  C   1.21565   0.94386   0.97880   0.98265
  695  C   1.21565   0.99174   0.93092   0.98265
  696  C   1.21565   0.99174   0.93092   0.98265
  697  C   1.21565   0.94839   0.97427   0.98265
  698  C   1.21565   0.94839   0.97427   0.98265
  699  C   1.21565   0.94386   0.97880   0.98265
  700  C   1.21565   0.94386   0.97880   0.98265
  701  C   1.21565   0.99174   0.93092   0.98265
  702  C   1.21565   0.99174   0.93092   0.98265
  703  C   1.21565   0.94839   0.97427   0.98265
  704  C   1.21565   0.94839   0.97427   0.98265
  705  C   1.21877   0.94017   0.99025   0.96554
  706  C   1.21877   0.94017   0.99025   0.96554
  707  C   1.21877   0.98359   0.94682   0.96554
  708  C   1.21877   0.98359   0.94682   0.96554
  709  C   1.21877   0.97186   0.95855   0.96554
  710  C   1.21877   0.97186   0.95855   0.96554
  711  C   1.21877   0.94017   0.99025   0.96554
  712  C   1.21877   0.94017   0.99025   0.96554
  713  C   1.21877   0.98359   0.94682   0.96554
  714  C   1.21877   0.98359   0.94682   0.96554
  715  C   1.21877   0.97186   0.95855   0.96554
  716  C   1.21877   0.97186   0.95855   0.96554
  717  C   1.21877   0.97186   0.95855   0.96554
  718  C   1.21877   0.97186   0.95855   0.96554
  719  C   1.21877   0.94017   0.99025   0.96554
  720  C   1.21877   0.94017   0.99025   0.96554
  721  C   1.21877   0.98359   0.94682   0.96554
  722  C   1.21877   0.98359   0.94682   0.96554
  723  C   1.21877   0.97186   0.95855   0.96554
  724  C   1.21877   0.97186   0.95855   0.96554
  725  C   1.21877   0.94017   0.99025   0.96554
  726  C   1.21877   0.94017   0.99025   0.96554
  727  C   1.21877   0.98359   0.94682   0.96554
  728  C   1.21877   0.98359   0.94682   0.96554
  729  C   1.21470   0.93926   0.94082   0.97207
  730  C   1.21470   0.93926   0.94082   0.97207
  731  C   1.21470   0.93228   0.94780   0.97207
  732  C   1.21470   0.93228   0.94780   0.97207
  733  C   1.21469   0.94858   0.93150   0.97207
  734  C   1.21470   0.94858   0.93150   0.97207
  735  C   1.21470   0.93926   0.94082   0.97207
  736  C   1.21470   0.93926   0.94082   0.97207
  737  C   1.21470   0.93228   0.94780   0.97207
  738  C   1.21470   0.93228   0.94780   0.97207
  739  C   1.21469   0.94858   0.93150   0.97207
  740  C   1.21470   0.94858   0.93150   0.97207
  741  C   1.21470   0.94858   0.93150   0.97207
  742  C   1.21469   0.94858   0.93150   0.97207
  743  C   1.21470   0.93926   0.94082   0.97207
  744  C   1.21470   0.93926   0.94082   0.97207
  745  C   1.21470   0.93228   0.94780   0.97207
  746  C   1.21470   0.93228   0.94780   0.97207
  747  C   1.21470   0.94858   0.93150   0.97207
  748  C   1.21469   0.94858   0.93150   0.97207
  749  C   1.21470   0.93926   0.94082   0.97207
  750  C   1.21470   0.93926   0.94082   0.97207
  751  C   1.21470   0.93228   0.94780   0.97207
  752  C   1.21470   0.93228   0.94780   0.97207
  753  C   1.21786   0.99060   0.93715   0.96507
  754  C   1.21786   0.99060   0.93715   0.96507
  755  C   1.21786   0.95641   0.97134   0.96507
  756  C   1.21786   0.95641   0.97134   0.96507
  757  C   1.21786   0.94462   0.98314   0.96507
  758  C   1.21786   0.94462   0.98314   0.96507
  759  C   1.21786   0.99060   0.93715   0.96507
  760  C   1.21786   0.99060   0.93715   0.96507
  761  C   1.21786   0.95641   0.97134   0.96507
  762  C   1.21786   0.95641   0.97134   0.96507
  763  C   1.21786   0.94462   0.98314   0.96507
  764  C   1.21786   0.94462   0.98314   0.96507
  765  C   1.21786   0.94462   0.98314   0.96507
  766  C   1.21786   0.94462   0.98314   0.96507
  767  C   1.21786   0.99060   0.93715   0.96507
  768  C   1.21786   0.99060   0.93715   0.96507
  769  C   1.21786   0.95641   0.97134   0.96507
  770  C   1.21786   0.95641   0.97134   0.96507
  771  C   1.21786   0.94462   0.98314   0.96507
  772  C   1.21786   0.94462   0.98314   0.96507
  773  C   1.21786   0.99060   0.93715   0.96507
  774  C   1.21786   0.99060   0.93715   0.96507
  775  C   1.21786   0.95641   0.97134   0.96507
  776  C   1.21786   0.95641   0.97134   0.96507
  777  C   1.21580   0.93366   0.99084   0.98633
  778  C   1.21580   0.93366   0.99084   0.98633
  779  C   1.21579   0.97933   0.94518   0.98633
  780  C   1.21579   0.97933   0.94518   0.98633
  781  C   1.21579   0.97376   0.95074   0.98633
  782  C   1.21580   0.97376   0.95074   0.98633
  783  C   1.21580   0.93366   0.99084   0.98633
  784  C   1.21580   0.93366   0.99084   0.98633
  785  C   1.21579   0.97933   0.94518   0.98633
  786  C   1.21579   0.97933   0.94518   0.98633
  787  C   1.21580   0.97376   0.95074   0.98633
  788  C   1.21579   0.97376   0.95074   0.98633
  789  C   1.21580   0.97376   0.95074   0.98633
  790  C   1.21579   0.97376   0.95074   0.98633
  791  C   1.21580   0.93366   0.99084   0.98633
  792  C   1.21580   0.93366   0.99084   0.98633
  793  C   1.21579   0.97933   0.94518   0.98633
  794  C   1.21579   0.97933   0.94518   0.98633
  795  C   1.21579   0.97376   0.95074   0.98633
  796  C   1.21580   0.97376   0.95074   0.98633
  797  C   1.21580   0.93366   0.99084   0.98633
  798  C   1.21580   0.93366   0.99084   0.98633
  799  C   1.21579   0.97933   0.94518   0.98633
  800  C   1.21579   0.97933   0.94518   0.98633
  801  C   1.18829   0.92882   0.92897   0.97472
  802  C   1.18829   0.92882   0.92898   0.97472
  803  C   1.18829   0.93113   0.92667   0.97472
  804  C   1.18829   0.93113   0.92667   0.97472
  805  C   1.18829   0.92675   0.93105   0.97472
  806  C   1.18829   0.92675   0.93105   0.97472
  807  C   1.18829   0.92882   0.92898   0.97472
  808  C   1.18829   0.92882   0.92897   0.97472
  809  C   1.18829   0.93113   0.92667   0.97472
  810  C   1.18829   0.93113   0.92667   0.97472
  811  C   1.18829   0.92675   0.93105   0.97472
  812  C   1.18829   0.92675   0.93105   0.97472
  813  C   1.18829   0.92675   0.93105   0.97472
  814  C   1.18829   0.92675   0.93105   0.97472
  815  C   1.18829   0.92882   0.92898   0.97472
  816  C   1.18829   0.92882   0.92897   0.97472
  817  C   1.18829   0.93113   0.92667   0.97472
  818  C   1.18829   0.93113   0.92667   0.97472
  819  C   1.18829   0.92675   0.93105   0.97472
  820  C   1.18829   0.92675   0.93105   0.97472
  821  C   1.18829   0.92882   0.92897   0.97472
  822  C   1.18829   0.92882   0.92898   0.97472
  823  C   1.18829   0.93113   0.92667   0.97472
  824  C   1.18829   0.93113   0.92667   0.97472
  825  C   1.21107   0.89738   0.99997   0.98981
  826  C   1.21107   0.89738   0.99997   0.98981
  827  C   1.21107   0.97830   0.91905   0.98981
  828  C   1.21107   0.97830   0.91905   0.98981
  829  C   1.21107   0.97035   0.92700   0.98981
  830  C   1.21107   0.97035   0.92700   0.98981
  831  C   1.21107   0.89738   0.99998   0.98981
  832  C   1.21107   0.89738   0.99997   0.98981
  833  C   1.21107   0.97830   0.91905   0.98981
  834  C   1.21107   0.97830   0.91905   0.98981
  835  C   1.21107   0.97035   0.92700   0.98981
  836  C   1.21107   0.97035   0.92700   0.98981
  837  C   1.21107   0.97035   0.92700   0.98981
  838  C   1.21107   0.97035   0.92700   0.98981
  839  C   1.21107   0.89738   0.99997   0.98981
  840  C   1.21107   0.89738   0.99997   0.98981
  841  C   1.21107   0.97830   0.91905   0.98981
  842  C   1.21107   0.97830   0.91905   0.98981
  843  C   1.21107   0.97035   0.92700   0.98981
  844  C   1.21107   0.97035   0.92700   0.98981
  845  C   1.21107   0.89738   0.99997   0.98981
  846  C   1.21107   0.89738   0.99997   0.98981
  847  C   1.21107   0.97830   0.91905   0.98981
  848  C   1.21107   0.97830   0.91905   0.98981
  849  C   1.18637   0.90562   0.90565   0.88243
  850  C   1.18637   0.90562   0.90565   0.88243
  851  C   1.18637   0.90562   0.90565   0.88243
  852  C   1.18637   0.90562   0.90565   0.88243
  853  C   1.18637   0.90567   0.90560   0.88243
  854  C   1.18637   0.90567   0.90560   0.88243
  855  C   1.19503   0.90058   0.90058   0.98646
  856  C   1.19503   0.90058   0.90058   0.98646
  857  C   1.19503   0.90058   0.90058   0.98646
  858  C   1.19503   0.90058   0.90058   0.98646
  859  C   1.19503   0.90058   0.90058   0.98646
  860  C   1.19503   0.90058   0.90058   0.98646
  861  C   1.19503   0.90058   0.90058   0.98646
  862  C   1.19503   0.90058   0.90058   0.98646
  863  N   1.69190   1.09495   1.23307   1.17219
  864  N   1.69191   1.09495   1.23307   1.17218
  865  N   1.69190   1.34479   0.98323   1.17218
  866  N   1.69190   1.34479   0.98323   1.17218
  867  N   1.69190   1.05229   1.27573   1.17218
  868  N   1.69190   1.05229   1.27573   1.17218
  869  N   1.69191   1.09495   1.23307   1.17218
  870  N   1.69190   1.09495   1.23307   1.17219
  871  N   1.69190   1.34479   0.98323   1.17218
  872  N   1.69190   1.34479   0.98323   1.17218
  873  N   1.69190   1.05229   1.27573   1.17218
  874  N   1.69190   1.05229   1.27573   1.17218
  875  N   1.69190   1.05229   1.27573   1.17218
  876  N   1.69190   1.05229   1.27573   1.17218
  877  N   1.69191   1.09495   1.23307   1.17218
  878  N   1.69190   1.09495   1.23307   1.17219
  879  N   1.69190   1.34479   0.98323   1.17218
  880  N   1.69190   1.34479   0.98323   1.17218
  881  N   1.69190   1.05229   1.27573   1.17218
  882  N   1.69190   1.05229   1.27573   1.17218
  883  N   1.69190   1.09495   1.23307   1.17219
  884  N   1.69191   1.09495   1.23307   1.17218
  885  N   1.69190   1.34479   0.98323   1.17218
  886  N   1.69190   1.34479   0.98323   1.17218
  887  F   1.78600   1.49189   1.87774   1.84969
  888  F   1.78600   1.49189   1.87774   1.84969
  889  F   1.78600   1.76144   1.60820   1.84969
  890  F   1.78601   1.76144   1.60819   1.84969
  891  F   1.78601   1.80112   1.56850   1.84969
  892  F   1.78601   1.80112   1.56851   1.84969
  893  F   1.78600   1.49189   1.87774   1.84969
  894  F   1.78600   1.49189   1.87774   1.84969
  895  F   1.78601   1.76144   1.60819   1.84969
  896  F   1.78600   1.76144   1.60820   1.84969
  897  F   1.78601   1.80112   1.56851   1.84969
  898  F   1.78601   1.80113   1.56850   1.84969
  899  F   1.78601   1.80112   1.56851   1.84969
  900  F   1.78601   1.80113   1.56850   1.84969
  901  F   1.78600   1.49189   1.87774   1.84969
  902  F   1.78600   1.49189   1.87774   1.84969
  903  F   1.78601   1.76144   1.60819   1.84969
  904  F   1.78600   1.76144   1.60820   1.84969
  905  F   1.78601   1.80113   1.56850   1.84969
  906  F   1.78601   1.80112   1.56851   1.84969
  907  F   1.78600   1.49189   1.87774   1.84969
  908  F   1.78600   1.49189   1.87774   1.84969
  909  F   1.78600   1.76144   1.60820   1.84969
  910  F   1.78601   1.76144   1.60819   1.84969

 **********************
 *                    *
 * JOB ENDED NORMALLY *
 *                    *
 **********************



 TOTAL JOB TIME:           176.45 SECONDS

 == MOPAC DONE ==
