 *******************************************************************************
 ** Cite this program as: MOPAC2016, Version: 22.067 , James J. P. Stewart,   **
 **                           web-site: HTTP://OpenMOPAC.net.                 **
 *******************************************************************************
 **                                                                           **
 **                                MOPAC2016                                  **
 **                                                                           **
 *******************************************************************************

                              AM1 CALCULATION RESULTS

 *******************************************************************************
 *  CALCULATION DONE:                                Wed Jun  8 12:14:15 2022  *
 *  AM1        - The AM1 Hamiltonian to be used
 *
 *
 *
 *                 CHARGE ON SYSTEM = 0
 *
 *
 *
 *  T=         - A TIME OF 172800.0 SECONDS REQUESTED
 *  DUMP=N     - RESTART FILE WRITTEN EVERY 7200.0 SECONDS REQUESTED
 *  PRTCHARGE  - PRINT CHARGES IN ARC FILE
 *******************************************************************************
AM1 CHARGE=0 PRTCHAR


   ATOM   CHEMICAL          X               Y               Z
  NUMBER   SYMBOL      (ANGSTROMS)     (ANGSTROMS)     (ANGSTROMS)
 
     1       H          3.90733000      5.23519000      4.44241000   
     2       H          7.56862000     14.64174000     35.35699000   
     3       H         16.46443000      0.76626000      4.44241000   
     4       H         -4.98848000     19.11067000     35.35699000   
     5       H         14.05609000     13.87549000      4.44241000   
     6       H         -2.58014000      6.00144000     35.35699000   
     7       H          7.56862000     14.64174000      4.44241000   
     8       H          3.90733000      5.23519000     35.35699000   
     9       H         -4.98848000     19.11067000      4.44241000   
    10       H         16.46443000      0.76626000     35.35699000   
    11       H         -2.58014000      6.00144000      4.44241000   
    12       H         14.05609000     13.87549000     35.35699000   
    13       H          2.58014000      6.00144000     15.45729000   
    14       H          8.89581000     13.87549000     24.34211000   
    15       H         -7.56862000     14.64174000     15.45729000   
    16       H         19.04457000      5.23519000     24.34211000   
    17       H          4.98848000     19.11067000     15.45729000   
    18       H          6.48747000      0.76626000     24.34211000   
    19       H          8.89581000     13.87549000     15.45729000   
    20       H          2.58014000      6.00144000     24.34211000   
    21       H         19.04457000      5.23519000     15.45729000   
    22       H         -7.56862000     14.64174000     24.34211000   
    23       H          6.48747000      0.76626000     15.45729000   
    24       H          4.98848000     19.11067000     24.34211000   
    25       H          8.40040000      5.48166000      3.73318000   
    26       H          3.07555000     14.39527000     36.06622000   
    27       H         14.00445000      4.53413000      3.73318000   
    28       H         -2.52850000     15.34280000     36.06622000   
    29       H         12.02301000      9.86114000      3.73318000   
    30       H         -0.54706000     10.01579000     36.06622000   
    31       H          3.07555000     14.39527000      3.73318000   
    32       H          8.40040000      5.48166000     36.06622000   
    33       H         -2.52850000     15.34280000      3.73318000   
    34       H         14.00445000      4.53413000     36.06622000   
    35       H         -0.54706000     10.01579000      3.73318000   
    36       H         12.02301000      9.86114000     36.06622000   
    37       H          0.54706000     10.01579000     16.16652000   
    38       H         10.92889000      9.86114000     23.63288000   
    39       H         -3.07555000     14.39527000     16.16652000   
    40       H         14.55150000      5.48166000     23.63288000   
    41       H          2.52850000     15.34280000     16.16652000   
    42       H          8.94745000      4.53413000     23.63288000   
    43       H         10.92889000      9.86114000     16.16652000   
    44       H          0.54706000     10.01579000     23.63288000   
    45       H         14.55150000      5.48166000     16.16652000   
    46       H         -3.07555000     14.39527000     23.63288000   
    47       H          8.94745000      4.53413000     16.16652000   
    48       H          2.52850000     15.34280000     23.63288000   
    49       H          6.40565000      2.79271000      7.38796000   
    50       H          5.07030000     17.08422000     32.41144000   
    51       H         17.33052000      4.15110000      7.38796000   
    52       H         -5.85457000     15.72583000     32.41144000   
    53       H         10.69168000     12.93312000      7.38796000   
    54       H          0.78427000      6.94381000     32.41144000   
    55       H          5.07030000     17.08422000      7.38796000   
    56       H          6.40565000      2.79271000     32.41144000   
    57       H         -5.85457000     15.72583000      7.38796000   
    58       H         17.33052000      4.15110000     32.41144000   
    59       H          0.78427000      6.94381000      7.38796000   
    60       H         10.69168000     12.93312000     32.41144000   
    61       H         -0.78427000      6.94381000     12.51174000   
    62       H         12.26022000     12.93312000     27.28766000   
    63       H         -5.07030000     17.08422000     12.51174000   
    64       H         16.54625000      2.79271000     27.28766000   
    65       H          5.85457000     15.72583000     12.51174000   
    66       H          5.62138000      4.15110000     27.28766000   
    67       H         12.26022000     12.93312000     12.51174000   
    68       H         -0.78427000      6.94381000     27.28766000   
    69       H         16.54625000      2.79271000     12.51174000   
    70       H         -5.07030000     17.08422000     27.28766000   
    71       H          5.62138000      4.15110000     12.51174000   
    72       H          5.85457000     15.72583000     27.28766000   
    73       H          4.99594000      4.28507000      6.09249000   
    74       H          6.48001000     15.59186000     33.70691000   
    75       H         16.74295000      2.18408000      6.09249000   
    76       H         -5.26700000     17.69285000     33.70691000   
    77       H         12.68896000     13.40778000      6.09249000   
    78       H         -1.21301000      6.46915000     33.70691000   
    79       H          6.48001000     15.59186000      6.09249000   
    80       H          4.99594000      4.28507000     33.70691000   
    81       H         -5.26700000     17.69285000      6.09249000   
    82       H         16.74295000      2.18408000     33.70691000   
    83       H         -1.21301000      6.46915000      6.09249000   
    84       H         12.68896000     13.40778000     33.70691000   
    85       H          1.21301000      6.46915000     13.80721000   
    86       H         10.26294000     13.40778000     25.99219000   
    87       H         -6.48001000     15.59186000     13.80721000   
    88       H         17.95596000      4.28507000     25.99219000   
    89       H          5.26700000     17.69285000     13.80721000   
    90       H          6.20895000      2.18408000     25.99219000   
    91       H         10.26294000     13.40778000     13.80721000   
    92       H          1.21301000      6.46915000     25.99219000   
    93       H         17.95596000      4.28507000     13.80721000   
    94       H         -6.48001000     15.59186000     25.99219000   
    95       H          6.20895000      2.18408000     13.80721000   
    96       H          5.26700000     17.69285000     25.99219000   
    97       H          0.76831000      7.90207000      1.99395000   
    98       H         10.70764000     11.97486000     37.80545000   
    99       H          4.24840000     16.59127000      1.99395000   
   100       H          7.22755000      3.28566000     37.80545000   
   101       H         -5.01671000     15.26051000      1.99395000   
   102       H         16.49266000      4.61642000     37.80545000   
   103       H         10.70764000     11.97486000      1.99395000   
   104       H          0.76831000      7.90207000     37.80545000   
   105       H          7.22755000      3.28566000      1.99395000   
   106       H          4.24840000     16.59127000     37.80545000   
   107       H         16.49266000      4.61642000      1.99395000   
   108       H         -5.01671000     15.26051000     37.80545000   
   109       H          6.45924000      4.61642000     17.90575000   
   110       H          5.01671000     15.26051000     21.89365000   
   111       H         12.24426000     11.97486000     17.90575000   
   112       H         -0.76831000      7.90207000     21.89365000   
   113       H         15.72435000      3.28566000     17.90575000   
   114       H         -4.24840000     16.59127000     21.89365000   
   115       H          5.01671000     15.26051000     17.90575000   
   116       H          6.45924000      4.61642000     21.89365000   
   117       H         -0.76831000      7.90207000     17.90575000   
   118       H         12.24426000     11.97486000     21.89365000   
   119       H         -4.24840000     16.59127000     17.90575000   
   120       H         15.72435000      3.28566000     21.89365000   
   121       H          4.57454000      9.74645000      1.22383000   
   122       H          6.90141000     10.13048000     38.57557000   
   123       H          0.74800000     18.96537000      1.22383000   
   124       H         10.72795000      0.91156000     38.57557000   
   125       H         -5.32255000     11.04203000      1.22383000   
   126       H         16.79850000      8.83490000     38.57557000   
   127       H          6.90141000     10.13048000      1.22383000   
   128       H          4.57454000      9.74645000     38.57557000   
   129       H         10.72795000      0.91156000      1.22383000   
   130       H          0.74800000     18.96537000     38.57557000   
   131       H         16.79850000      8.83490000      1.22383000   
   132       H         -5.32255000     11.04203000     38.57557000   
   133       H          6.15340000      8.83490000     18.67587000   
   134       H          5.32255000     11.04203000     21.12353000   
   135       H         16.05049000     10.13048000     18.67587000   
   136       H         -4.57454000      9.74645000     21.12353000   
   137       H         12.22395000      0.91156000     18.67587000   
   138       H         -0.74800000     18.96537000     21.12353000   
   139       H          5.32255000     11.04203000     18.67587000   
   140       H          6.15340000      8.83490000     21.12353000   
   141       H         -4.57454000      9.74645000     18.67587000   
   142       H         16.05049000     10.13048000     21.12353000   
   143       H         -0.74800000     18.96537000     18.67587000   
   144       H         12.22395000      0.91156000     21.12353000   
   145       H          5.69276000      8.04777000      2.58815000   
   146       H          5.78319000     11.82916000     37.21125000   
   147       H         13.13595000      0.90619000      2.58815000   
   148       H         -1.66000000     18.97074000     37.21125000   
   149       H         15.59914000     10.92297000      2.58815000   
   150       H         -4.12319000      8.95396000     37.21125000   
   151       H          5.78319000     11.82916000      2.58815000   
   152       H          5.69276000      8.04777000     37.21125000   
   153       H         -1.66000000     18.97074000      2.58815000   
   154       H         13.13595000      0.90619000     37.21125000   
   155       H         -4.12319000      8.95396000      2.58815000   
   156       H         15.59914000     10.92297000     37.21125000   
   157       H          4.12319000      8.95396000     17.31155000   
   158       H          7.35276000     10.92297000     22.48785000   
   159       H         -5.78319000     11.82916000     17.31155000   
   160       H         17.25914000      8.04777000     22.48785000   
   161       H          1.66000000     18.97074000     17.31155000   
   162       H          9.81595000      0.90619000     22.48785000   
   163       H          7.35276000     10.92297000     17.31155000   
   164       H          4.12319000      8.95396000     22.48785000   
   165       H         17.25914000      8.04777000     17.31155000   
   166       H         -5.78319000     11.82916000     22.48785000   
   167       H          9.81595000      0.90619000     17.31155000   
   168       H          1.66000000     18.97074000     22.48785000   
   169       H          7.71551000      0.71557000      7.19215000   
   170       H          3.76044000     19.16136000     32.60725000   
   171       H         18.47444000      6.32404000      7.19215000   
   172       H         -6.99849000     13.55288000     32.60725000   
   173       H          8.23790000     12.83732000      7.19215000   
   174       H          3.23805000      7.03961000     32.60725000   
   175       H          3.76044000     19.16136000      7.19215000   
   176       H          7.71551000      0.71557000     32.60725000   
   177       H         -6.99849000     13.55288000      7.19215000   
   178       H         18.47444000      6.32404000     32.60725000   
   179       H          3.23805000      7.03961000      7.19215000   
   180       H          8.23790000     12.83732000     32.60725000   
   181       H         -3.23805000      7.03961000     12.70755000   
   182       H         14.71400000     12.83732000     27.09185000   
   183       H         -3.76044000     19.16136000     12.70755000   
   184       H         15.23639000      0.71557000     27.09185000   
   185       H          6.99849000     13.55288000     12.70755000   
   186       H          4.47746000      6.32404000     27.09185000   
   187       H         14.71400000     12.83732000     12.70755000   
   188       H         -3.23805000      7.03961000     27.09185000   
   189       H         15.23639000      0.71557000     12.70755000   
   190       H         -3.76044000     19.16136000     27.09185000   
   191       H          4.47746000      6.32404000     12.70755000   
   192       H          6.99849000     13.55288000     27.09185000   
   193       H         -2.42361000     19.24663000      8.71925000   
   194       H         13.89956000      0.63030000     31.08015000   
   195       H         -3.98032000      8.15471000      8.71925000   
   196       H         15.45627000     11.72222000     31.08015000   
   197       H          6.40392000     12.35252000      8.71925000   
   198       H          5.07203000      7.52441000     31.08015000   
   199       H         13.89956000      0.63030000      8.71925000   
   200       H         -2.42361000     19.24663000     31.08015000   
   201       H         15.45627000     11.72222000      8.71925000   
   202       H         -3.98032000      8.15471000     31.08015000   
   203       H          5.07203000      7.52441000      8.71925000   
   204       H          6.40392000     12.35252000     31.08015000   
   205       H         17.87987000      7.52441000     11.18045000   
   206       H         -6.40392000     12.35252000     28.61895000   
   207       H          9.05234000      0.63030000     11.18045000   
   208       H          2.42361000     19.24663000     28.61895000   
   209       H          7.49563000     11.72222000     11.18045000   
   210       H          3.98032000      8.15471000     28.61895000   
   211       H         -6.40392000     12.35252000     11.18045000   
   212       H         17.87987000      7.52441000     28.61895000   
   213       H          2.42361000     19.24663000     11.18045000   
   214       H          9.05234000      0.63030000     28.61895000   
   215       H          3.98032000      8.15471000     11.18045000   
   216       H          7.49563000     11.72222000     28.61895000   
   217       H         12.07557000      2.45540000      8.76900000   
   218       H         -0.59962000     17.42153000     31.03040000   
   219       H         14.78768000      9.23005000      8.76900000   
   220       H         -3.31173000     10.64688000     31.03040000   
   221       H          7.56460000      8.19148000      8.76900000   
   222       H          3.91135000     11.68545000     31.03040000   
   223       H         -0.59962000     17.42153000      8.76900000   
   224       H         12.07557000      2.45540000     31.03040000   
   225       H         -3.31173000     10.64688000      8.76900000   
   226       H         14.78768000      9.23005000     31.03040000   
   227       H          3.91135000     11.68545000      8.76900000   
   228       H          7.56460000      8.19148000     31.03040000   
   229       H         -3.91135000     11.68545000     11.13070000   
   230       H         15.38730000      8.19148000     28.66870000   
   231       H          0.59962000     17.42153000     11.13070000   
   232       H         10.87633000      2.45540000     28.66870000   
   233       H          3.31173000     10.64688000     11.13070000   
   234       H          8.16422000      9.23005000     28.66870000   
   235       H         15.38730000      8.19148000     11.13070000   
   236       H         -3.91135000     11.68545000     28.66870000   
   237       H         10.87633000      2.45540000     11.13070000   
   238       H          0.59962000     17.42153000     28.66870000   
   239       H          8.16422000      9.23005000     11.13070000   
   240       H          3.31173000     10.64688000     28.66870000   
   241       H         10.69972000      3.82949000      7.32826000   
   242       H          0.77623000     16.04744000     32.47114000   
   243       H         14.28561000      7.35148000      7.32826000   
   244       H         -2.80966000     12.52545000     32.47114000   
   245       H          9.44253000      8.69596000      7.32826000   
   246       H          2.03342000     11.18097000     32.47114000   
   247       H          0.77623000     16.04744000      7.32826000   
   248       H         10.69972000      3.82949000     32.47114000   
   249       H         -2.80966000     12.52545000      7.32826000   
   250       H         14.28561000      7.35148000     32.47114000   
   251       H          2.03342000     11.18097000      7.32826000   
   252       H          9.44253000      8.69596000     32.47114000   
   253       H         -2.03342000     11.18097000     12.57144000   
   254       H         13.50937000      8.69596000     27.22796000   
   255       H         -0.77623000     16.04744000     12.57144000   
   256       H         12.25218000      3.82949000     27.22796000   
   257       H          2.80966000     12.52545000     12.57144000   
   258       H          8.66629000      7.35148000     27.22796000   
   259       H         13.50937000      8.69596000     12.57144000   
   260       H         -2.03342000     11.18097000     27.22796000   
   261       H         12.25218000      3.82949000     12.57144000   
   262       H         -0.77623000     16.04744000     27.22796000   
   263       H          8.66629000      7.35148000     12.57144000   
   264       H          2.80966000     12.52545000     27.22796000   
   265       H          2.57279000     13.20484000     22.39074000   
   266       H          8.90316000      6.67209000     17.40866000   
   267       H         -1.24617000     15.50261000     22.39074000   
   268       H         12.72212000      4.37432000     17.40866000   
   269       H         -1.32662000     11.04640000     22.39074000   
   270       H         12.80257000      8.83052000     17.40866000   
   271       H          8.90316000      6.67209000     22.39074000   
   272       H          2.57279000     13.20484000     17.40866000   
   273       H         12.72212000      4.37432000     22.39074000   
   274       H         -1.24617000     15.50261000     17.40866000   
   275       H         12.80257000      8.83052000     22.39074000   
   276       H         -1.32662000     11.04640000     17.40866000   
   277       H         10.14933000      8.83052000     37.30836000   
   278       H          1.32662000     11.04640000      2.49104000   
   279       H         14.04874000      6.67209000     37.30836000   
   280       H         -2.57279000     13.20484000      2.49104000   
   281       H         10.22978000      4.37432000     37.30836000   
   282       H          1.24617000     15.50261000      2.49104000   
   283       H          1.32662000     11.04640000     37.30836000   
   284       H         10.14933000      8.83052000      2.49104000   
   285       H         -2.57279000     13.20484000     37.30836000   
   286       H         14.04874000      6.67209000      2.49104000   
   287       H          1.24617000     15.50261000     37.30836000   
   288       H         10.22978000      4.37432000      2.49104000   
   289       H         -0.00001000     13.25129000     22.34816000   
   290       H         11.47596000      6.62564000     17.45124000   
   291       H         11.47596000      6.62564000     22.34816000   
   292       H         -0.00001000     13.25129000     17.45124000   
   293       H         11.47596000      6.62564000     37.35094000   
   294       H         -0.00001000     13.25129000      2.44846000   
   295       H         -0.00001000     13.25129000     37.35094000   
   296       H         11.47596000      6.62564000      2.44846000   
   297       C          4.52313000      5.96069000      3.92979000   
   298       C          6.95282000     13.91624000     35.86961000   
   299       C         15.52822000      0.93680000      3.92979000   
   300       C         -4.05227000     18.94013000     35.86961000   
   301       C         14.37650000     12.97944000      3.92979000   
   302       C         -2.90055000      6.89749000     35.86961000   
   303       C          6.95282000     13.91624000      3.92979000   
   304       C          4.52313000      5.96069000     35.86961000   
   305       C         -4.05227000     18.94013000      3.92979000   
   306       C         15.52822000      0.93680000     35.86961000   
   307       C         -2.90055000      6.89749000      3.92979000   
   308       C         14.37650000     12.97944000     35.86961000   
   309       C          2.90055000      6.89749000     15.96991000   
   310       C          8.57540000     12.97944000     23.82949000   
   311       C         -6.95282000     13.91624000     15.96991000   
   312       C         18.42877000      5.96069000     23.82949000   
   313       C          4.05227000     18.94013000     15.96991000   
   314       C          7.42368000      0.93680000     23.82949000   
   315       C          8.57540000     12.97944000     15.96991000   
   316       C          2.90055000      6.89749000     23.82949000   
   317       C         18.42877000      5.96069000     15.96991000   
   318       C         -6.95282000     13.91624000     23.82949000   
   319       C          7.42368000      0.93680000     15.96991000   
   320       C          4.05227000     18.94013000     23.82949000   
   321       C          7.96339000      4.88535000      4.52440000   
   322       C          3.51256000     14.99158000     35.27500000   
   323       C         14.73937000      4.45382000      4.52440000   
   324       C         -3.26342000     15.42311000     35.27500000   
   325       C         11.72509000     10.53775000      4.52440000   
   326       C         -0.24914000      9.33917000     35.27500000   
   327       C          3.51256000     14.99158000      4.52440000   
   328       C          7.96339000      4.88535000     35.27500000   
   329       C         -3.26342000     15.42311000      4.52440000   
   330       C         14.73937000      4.45382000     35.27500000   
   331       C         -0.24914000      9.33917000      4.52440000   
   332       C         11.72509000     10.53775000     35.27500000   
   333       C          0.24914000      9.33917000     15.37530000   
   334       C         11.22681000     10.53775000     24.42410000   
   335       C         -3.51256000     14.99158000     15.37530000   
   336       C         14.98851000      4.88535000     24.42410000   
   337       C          3.26342000     15.42311000     15.37530000   
   338       C          8.21253000      4.45382000     24.42410000   
   339       C         11.22681000     10.53775000     15.37530000   
   340       C          0.24914000      9.33917000     24.42410000   
   341       C         14.98851000      4.88535000     15.37530000   
   342       C         -3.51256000     14.99158000     24.42410000   
   343       C          8.21253000      4.45382000     15.37530000   
   344       C          3.26342000     15.42311000     24.42410000   
   345       C          8.77509000      4.02011000      5.26307000   
   346       C          2.70086000     15.85682000     34.53633000   
   347       C         15.08284000      5.58939000      5.26307000   
   348       C         -3.60689000     14.28754000     34.53633000   
   349       C         10.56992000     10.26743000      5.26307000   
   350       C          0.90603000      9.60950000     34.53633000   
   351       C          2.70086000     15.85682000      5.26307000   
   352       C          8.77509000      4.02011000     34.53633000   
   353       C         -3.60689000     14.28754000      5.26307000   
   354       C         15.08284000      5.58939000     34.53633000   
   355       C          0.90603000      9.60950000      5.26307000   
   356       C         10.56992000     10.26743000     34.53633000   
   357       C         -0.90603000      9.60950000     14.63663000   
   358       C         12.38198000     10.26743000     25.16277000   
   359       C         -2.70086000     15.85682000     14.63663000   
   360       C         14.17681000      4.02011000     25.16277000   
   361       C          3.60689000     14.28754000     14.63663000   
   362       C          7.86906000      5.58939000     25.16277000   
   363       C         12.38198000     10.26743000     14.63663000   
   364       C         -0.90603000      9.60950000     25.16277000   
   365       C         14.17681000      4.02011000     14.63663000   
   366       C         -2.70086000     15.85682000     25.16277000   
   367       C          7.86906000      5.58939000     14.63663000   
   368       C          3.60689000     14.28754000     25.16277000   
   369       C          8.22745000      3.25167000      6.30820000   
   370       C          3.24850000     16.62526000     33.49120000   
   371       C         16.02215000      5.49935000      6.30820000   
   372       C         -4.54620000     14.37758000     33.49120000   
   373       C         10.17825000     11.12591000      6.30820000   
   374       C          1.29770000      8.75102000     33.49120000   
   375       C          3.24850000     16.62526000      6.30820000   
   376       C          8.22745000      3.25167000     33.49120000   
   377       C         -4.54620000     14.37758000      6.30820000   
   378       C         16.02215000      5.49935000     33.49120000   
   379       C          1.29770000      8.75102000      6.30820000   
   380       C         10.17825000     11.12591000     33.49120000   
   381       C         -1.29770000      8.75102000     13.59150000   
   382       C         12.77365000     11.12591000     26.20790000   
   383       C         -3.24850000     16.62526000     13.59150000   
   384       C         14.72445000      3.25167000     26.20790000   
   385       C          4.54620000     14.37758000     13.59150000   
   386       C          6.92975000      5.49935000     26.20790000   
   387       C         12.77365000     11.12591000     13.59150000   
   388       C         -1.29770000      8.75102000     26.20790000   
   389       C         14.72445000      3.25167000     13.59150000   
   390       C         -3.24850000     16.62526000     26.20790000   
   391       C          6.92975000      5.49935000     13.59150000   
   392       C          4.54620000     14.37758000     26.20790000   
   393       C          6.85068000      3.35205000      6.57446000   
   394       C          4.62527000     16.52488000     33.22494000   
   395       C         16.62360000      4.25684000      6.57446000   
   396       C         -5.14765000     15.62009000     33.22494000   
   397       C         10.95356000     12.26804000      6.57446000   
   398       C          0.52239000      7.60889000     33.22494000   
   399       C          4.62527000     16.52488000      6.57446000   
   400       C          6.85068000      3.35205000     33.22494000   
   401       C         -5.14765000     15.62009000      6.57446000   
   402       C         16.62360000      4.25684000     33.22494000   
   403       C          0.52239000      7.60889000      6.57446000   
   404       C         10.95356000     12.26804000     33.22494000   
   405       C         -0.52239000      7.60889000     13.32524000   
   406       C         11.99834000     12.26804000     26.47416000   
   407       C         -4.62527000     16.52488000     13.32524000   
   408       C         16.10122000      3.35205000     26.47416000   
   409       C          5.14765000     15.62009000     13.32524000   
   410       C          6.32830000      4.25684000     26.47416000   
   411       C         11.99834000     12.26804000     13.32524000   
   412       C         -0.52239000      7.60889000     26.47416000   
   413       C         16.10122000      3.35205000     13.32524000   
   414       C         -4.62527000     16.52488000     26.47416000   
   415       C          6.32830000      4.25684000     13.32524000   
   416       C          5.14765000     15.62009000     26.47416000   
   417       C          6.04037000      4.21013000      5.82663000   
   418       C          5.43558000     15.66680000     33.97277000   
   419       C         16.28564000      3.12604000      5.82663000   
   420       C         -4.80969000     16.75088000     33.97277000   
   421       C         12.10185000     12.54075000      5.82663000   
   422       C         -0.62590000      7.33618000     33.97277000   
   423       C          5.43558000     15.66680000      5.82663000   
   424       C          6.04037000      4.21013000     33.97277000   
   425       C         -4.80969000     16.75088000      5.82663000   
   426       C         16.28564000      3.12604000     33.97277000   
   427       C         -0.62590000      7.33618000      5.82663000   
   428       C         12.10185000     12.54075000     33.97277000   
   429       C          0.62590000      7.33618000     14.07307000   
   430       C         10.85005000     12.54075000     25.72633000   
   431       C         -5.43558000     15.66680000     14.07307000   
   432       C         16.91153000      4.21013000     25.72633000   
   433       C          4.80969000     16.75088000     14.07307000   
   434       C          6.66626000      3.12604000     25.72633000   
   435       C         10.85005000     12.54075000     14.07307000   
   436       C          0.62590000      7.33618000     25.72633000   
   437       C         16.91153000      4.21013000     14.07307000   
   438       C         -5.43558000     15.66680000     25.72633000   
   439       C          6.66626000      3.12604000     14.07307000   
   440       C          4.80969000     16.75088000     25.72633000   
   441       C          6.59362000      4.98354000      4.78946000   
   442       C          4.88233000     14.89338000     35.00994000   
   443       C         15.33921000      3.21847000      4.78946000   
   444       C         -3.86326000     16.65846000     35.00994000   
   445       C         12.49501000     11.67491000      4.78946000   
   446       C         -1.01906000      8.20202000     35.00994000   
   447       C          4.88233000     14.89338000      4.78946000   
   448       C          6.59362000      4.98354000     35.00994000   
   449       C         -3.86326000     16.65846000      4.78946000   
   450       C         15.33921000      3.21847000     35.00994000   
   451       C         -1.01906000      8.20202000      4.78946000   
   452       C         12.49501000     11.67491000     35.00994000   
   453       C          1.01906000      8.20202000     15.11024000   
   454       C         10.45689000     11.67491000     24.68916000   
   455       C         -4.88233000     14.89338000     15.11024000   
   456       C         16.35828000      4.98354000     24.68916000   
   457       C          3.86326000     16.65846000     15.11024000   
   458       C          7.61269000      3.21847000     24.68916000   
   459       C         10.45689000     11.67491000     15.11024000   
   460       C          1.01906000      8.20202000     24.68916000   
   461       C         16.35828000      4.98354000     15.11024000   
   462       C         -4.88233000     14.89338000     24.68916000   
   463       C          7.61269000      3.21847000     15.11024000   
   464       C          3.86326000     16.65846000     24.68916000   
   465       C          2.46871000      6.96289000      2.91610000   
   466       C          9.00724000     12.91404000     36.88330000   
   467       C          4.21156000     18.53345000      2.91610000   
   468       C          7.26439000      1.34348000     36.88330000   
   469       C         -6.68027000     14.25752000      2.91610000   
   470       C         18.15622000      5.61941000     36.88330000   
   471       C          9.00724000     12.91404000      2.91610000   
   472       C          2.46871000      6.96289000     36.88330000   
   473       C          7.26439000      1.34348000      2.91610000   
   474       C          4.21156000     18.53345000     36.88330000   
   475       C         18.15622000      5.61941000      2.91610000   
   476       C         -6.68027000     14.25752000     36.88330000   
   477       C          4.79568000      5.61941000     16.98360000   
   478       C          6.68027000     14.25752000     22.81580000   
   479       C         13.94466000     12.91404000     16.98360000   
   480       C         -2.46871000      6.96289000     22.81580000   
   481       C         15.68751000      1.34348000     16.98360000   
   482       C         -4.21156000     18.53345000     22.81580000   
   483       C          6.68027000     14.25752000     16.98360000   
   484       C          4.79568000      5.61941000     22.81580000   
   485       C         -2.46871000      6.96289000     16.98360000   
   486       C         13.94466000     12.91404000     22.81580000   
   487       C         -4.21156000     18.53345000     16.98360000   
   488       C         15.68751000      1.34348000     22.81580000   
   489       C          1.84441000      7.92533000      2.11653000   
   490       C          9.63154000     11.95160000     37.68287000   
   491       C          3.69021000     17.51157000      2.11653000   
   492       C          7.78574000      2.36535000     37.68287000   
   493       C         -5.53462000     14.31695000      2.11653000   
   494       C         17.01057000      5.55997000     37.68287000   
   495       C          9.63154000     11.95160000      2.11653000   
   496       C          1.84441000      7.92533000     37.68287000   
   497       C          7.78574000      2.36535000      2.11653000   
   498       C          3.69021000     17.51157000     37.68287000   
   499       C         17.01057000      5.55997000      2.11653000   
   500       C         -5.53462000     14.31695000     37.68287000   
   501       C          5.94133000      5.55997000     17.78317000   
   502       C          5.53462000     14.31695000     22.01623000   
   503       C         13.32036000     11.95160000     17.78317000   
   504       C         -1.84441000      7.92533000     22.01623000   
   505       C         15.16616000      2.36535000     17.78317000   
   506       C         -3.69021000     17.51157000     22.01623000   
   507       C          5.53462000     14.31695000     17.78317000   
   508       C          5.94133000      5.55997000     22.01623000   
   509       C         -1.84441000      7.92533000     17.78317000   
   510       C         13.32036000     11.95160000     22.01623000   
   511       C         -3.69021000     17.51157000     17.78317000   
   512       C         15.16616000      2.36535000     22.01623000   
   513       C          2.60297000      8.92116000      1.48850000   
   514       C          8.87298000     10.95577000     38.31090000   
   515       C          2.44851000     17.67059000      1.48850000   
   516       C          9.02744000      2.20634000     38.31090000   
   517       C         -5.05148000     13.16210000      1.48850000   
   518       C         16.52743000      6.71482000     38.31090000   
   519       C          8.87298000     10.95577000      1.48850000   
   520       C          2.60297000      8.92116000     38.31090000   
   521       C          9.02744000      2.20634000      1.48850000   
   522       C          2.44851000     17.67059000     38.31090000   
   523       C         16.52743000      6.71482000      1.48850000   
   524       C         -5.05148000     13.16210000     38.31090000   
   525       C          6.42447000      6.71482000     18.41120000   
   526       C          5.05148000     13.16210000     21.38820000   
   527       C         14.07892000     10.95577000     18.41120000   
   528       C         -2.60297000      8.92116000     21.38820000   
   529       C         13.92446000      2.20634000     18.41120000   
   530       C         -2.44851000     17.67059000     21.38820000   
   531       C          5.05148000     13.16210000     18.41120000   
   532       C          6.42447000      6.71482000     21.38820000   
   533       C         -2.60297000      8.92116000     18.41120000   
   534       C         14.07892000     10.95577000     21.38820000   
   535       C         -2.44851000     17.67059000     18.41120000   
   536       C         13.92446000      2.20634000     21.38820000   
   537       C          3.98812000      8.95853000      1.67595000   
   538       C          7.48783000     10.91840000     38.12345000   
   539       C          1.72357000     18.85148000      1.67595000   
   540       C          9.75238000      1.02545000     38.12345000   
   541       C         -5.71170000     11.94385000      1.67595000   
   542       C         17.18765000      7.93308000     38.12345000   
   543       C          7.48783000     10.91840000      1.67595000   
   544       C          3.98812000      8.95853000     38.12345000   
   545       C          9.75238000      1.02545000      1.67595000   
   546       C          1.72357000     18.85148000     38.12345000   
   547       C         17.18765000      7.93308000      1.67595000   
   548       C         -5.71170000     11.94385000     38.12345000   
   549       C          5.76425000      7.93308000     18.22375000   
   550       C          5.71170000     11.94385000     21.57565000   
   551       C         15.46407000     10.91840000     18.22375000   
   552       C         -3.98812000      8.95853000     21.57565000   
   553       C         13.19952000      1.02545000     18.22375000   
   554       C         -1.72357000     18.85148000     21.57565000   
   555       C          5.71170000     11.94385000     18.22375000   
   556       C          5.76425000      7.93308000     21.57565000   
   557       C         -3.98812000      8.95853000     18.22375000   
   558       C         15.46407000     10.91840000     21.57565000   
   559       C         -1.72357000     18.85148000     18.22375000   
   560       C         13.19952000      1.02545000     21.57565000   
   561       C          4.61850000      7.99390000      2.46279000   
   562       C          6.85745000     11.88302000     37.33661000   
   563       C         13.71973000      0.00278000      2.46279000   
   564       C         -2.24378000     19.87415000     37.33661000   
   565       C         16.08963000     11.88024000      2.46279000   
   566       C         -4.61368000      7.99669000     37.33661000   
   567       C          6.85745000     11.88302000      2.46279000   
   568       C          4.61850000      7.99390000     37.33661000   
   569       C         -2.24378000     19.87415000      2.46279000   
   570       C         13.71973000      0.00278000     37.33661000   
   571       C         -4.61368000      7.99669000      2.46279000   
   572       C         16.08963000     11.88024000     37.33661000   
   573       C          4.61368000      7.99669000     17.43691000   
   574       C          6.86227000     11.88024000     22.36249000   
   575       C         -6.85745000     11.88302000     17.43691000   
   576       C         18.33340000      7.99390000     22.36249000   
   577       C          2.24378000     19.87415000     17.43691000   
   578       C          9.23217000      0.00278000     22.36249000   
   579       C          6.86227000     11.88024000     17.43691000   
   580       C          4.61368000      7.99669000     22.36249000   
   581       C         18.33340000      7.99390000     17.43691000   
   582       C         -6.85745000     11.88302000     22.36249000   
   583       C          9.23217000      0.00278000     17.43691000   
   584       C          2.24378000     19.87415000     22.36249000   
   585       C          3.86533000      6.98436000      3.09122000   
   586       C          7.61062000     12.89257000     36.70818000   
   587       C          3.49466000     19.73222000      3.09122000   
   588       C          7.98129000      0.14470000     36.70818000   
   589       C         -7.35999000     13.03728000      3.09122000   
   590       C         18.83594000      6.83965000     36.70818000   
   591       C          7.61062000     12.89257000      3.09122000   
   592       C          3.86533000      6.98436000     36.70818000   
   593       C          7.98129000      0.14470000      3.09122000   
   594       C          3.49466000     19.73222000     36.70818000   
   595       C         18.83594000      6.83965000      3.09122000   
   596       C         -7.35999000     13.03728000     36.70818000   
   597       C          4.11596000      6.83965000     16.80848000   
   598       C          7.35999000     13.03728000     22.99092000   
   599       C         15.34128000     12.89257000     16.80848000   
   600       C         -3.86533000      6.98436000     22.99092000   
   601       C         14.97061000      0.14470000     16.80848000   
   602       C         -3.49466000     19.73222000     22.99092000   
   603       C          7.35999000     13.03728000     16.80848000   
   604       C          4.11596000      6.83965000     22.99092000   
   605       C         -3.86533000      6.98436000     16.80848000   
   606       C         15.34128000     12.89257000     22.99092000   
   607       C         -3.49466000     19.73222000     16.80848000   
   608       C         14.97061000      0.14470000     22.99092000   
   609       C          0.69345000     12.05019000      0.70803000   
   610       C         10.78250000      7.82674000     39.09137000   
   611       C          0.69346000     14.45238000      0.70803000   
   612       C         10.78249000      5.42455000     39.09137000   
   613       C         -1.38690000     13.25129000      0.70803000   
   614       C         12.86285000      6.62564000     39.09137000   
   615       C         10.78250000      7.82674000      0.70803000   
   616       C          0.69345000     12.05019000     39.09137000   
   617       C         10.78249000      5.42455000      0.70803000   
   618       C          0.69346000     14.45238000     39.09137000   
   619       C         12.86285000      6.62564000      0.70803000   
   620       C         -1.38690000     13.25129000     39.09137000   
   621       C         10.08905000      6.62564000     19.19167000   
   622       C          1.38690000     13.25129000     20.60773000   
   623       C         12.16940000      7.82674000     19.19167000   
   624       C         -0.69345000     12.05019000     20.60773000   
   625       C         12.16941000      5.42455000     19.19167000   
   626       C         -0.69346000     14.45238000     20.60773000   
   627       C          1.38690000     13.25129000     19.19167000   
   628       C         10.08905000      6.62564000     20.60773000   
   629       C         -0.69345000     12.05019000     19.19167000   
   630       C         12.16940000      7.82674000     20.60773000   
   631       C         -0.69346000     14.45238000     19.19167000   
   632       C         12.16941000      5.42455000     20.60773000   
   633       C          1.94001000      9.98001000      0.71042000   
   634       C          9.53594000      9.89692000     39.08898000   
   635       C          1.86301000     16.56702000      0.71042000   
   636       C          9.61294000      3.30991000     39.08898000   
   637       C         -3.80302000     13.20683000      0.71042000   
   638       C         15.27897000      6.67010000     39.08898000   
   639       C          9.53594000      9.89692000      0.71042000   
   640       C          1.94001000      9.98001000     39.08898000   
   641       C          9.61294000      3.30991000      0.71042000   
   642       C          1.86301000     16.56702000     39.08898000   
   643       C         15.27897000      6.67010000      0.71042000   
   644       C         -3.80302000     13.20683000     39.08898000   
   645       C          7.67293000      6.67010000     19.18928000   
   646       C          3.80302000     13.20683000     20.61012000   
   647       C         13.41596000      9.89692000     19.18928000   
   648       C         -1.94001000      9.98001000     20.61012000   
   649       C         13.33896000      3.30991000     19.18928000   
   650       C         -1.86301000     16.56702000     20.61012000   
   651       C          3.80302000     13.20683000     19.18928000   
   652       C          7.67293000      6.67010000     20.61012000   
   653       C         -1.94001000      9.98001000     19.18928000   
   654       C         13.41596000      9.89692000     20.61012000   
   655       C         -1.86301000     16.56702000     19.18928000   
   656       C         13.33896000      3.30991000     20.61012000   
   657       C          8.64896000      1.11947000      7.56427000   
   658       C          2.82699000     18.75746000     32.23513000   
   659       C         17.65793000      6.93049000      7.56427000   
   660       C         -6.18198000     12.94644000     32.23513000   
   661       C          8.12096000     11.82697000      7.56427000   
   662       C          3.35499000      8.04996000     32.23513000   
   663       C          2.82699000     18.75746000      7.56427000   
   664       C          8.64896000      1.11947000     32.23513000   
   665       C         -6.18198000     12.94644000      7.56427000   
   666       C         17.65793000      6.93049000     32.23513000   
   667       C          3.35499000      8.04996000      7.56427000   
   668       C          8.12096000     11.82697000     32.23513000   
   669       C         -3.35499000      8.04996000     12.33543000   
   670       C         14.83094000     11.82697000     27.46397000   
   671       C         -2.82699000     18.75746000     12.33543000   
   672       C         14.30294000      1.11947000     27.46397000   
   673       C          6.18198000     12.94644000     12.33543000   
   674       C          5.29397000      6.93049000     27.46397000   
   675       C         14.83094000     11.82697000     12.33543000   
   676       C         -3.35499000      8.04996000     27.46397000   
   677       C         14.30294000      1.11947000     12.33543000   
   678       C         -2.82699000     18.75746000     27.46397000   
   679       C          5.29397000      6.93049000     12.33543000   
   680       C          6.18198000     12.94644000     27.46397000   
   681       C          9.41326000      0.35341000      8.44901000   
   682       C          2.06269000     19.52352000     31.35039000   
   683       C         17.93921000      7.97542000      8.44901000   
   684       C         -6.46326000     11.90151000     31.35039000   
   685       C          7.07538000     11.54810000      8.44901000   
   686       C          4.40057000      8.32883000     31.35039000   
   687       C          2.06269000     19.52352000      8.44901000   
   688       C          9.41326000      0.35341000     31.35039000   
   689       C         -6.46326000     11.90151000      8.44901000   
   690       C         17.93921000      7.97542000     31.35039000   
   691       C          4.40057000      8.32883000      8.44901000   
   692       C          7.07538000     11.54810000     31.35039000   
   693       C         -4.40057000      8.32883000     11.45069000   
   694       C         15.87652000     11.54810000     28.34871000   
   695       C         -2.06269000     19.52352000     11.45069000   
   696       C         13.53864000      0.35341000     28.34871000   
   697       C          6.46326000     11.90151000     11.45069000   
   698       C          5.01269000      7.97542000     28.34871000   
   699       C         15.87652000     11.54810000     11.45069000   
   700       C         -4.40057000      8.32883000     28.34871000   
   701       C         13.53864000      0.35341000     11.45069000   
   702       C         -2.06269000     19.52352000     28.34871000   
   703       C          5.01269000      7.97542000     11.45069000   
   704       C          6.46326000     11.90151000     28.34871000   
   705       C         10.61984000      0.85312000      8.98670000   
   706       C          0.85611000     19.02381000     30.81270000   
   707       C         16.90316000      8.77050000      8.98670000   
   708       C         -5.42721000     11.10643000     30.81270000   
   709       C          6.90485000     10.25331000      8.98670000   
   710       C          4.57110000      9.62361000     30.81270000   
   711       C          0.85611000     19.02381000      8.98670000   
   712       C         10.61984000      0.85312000     30.81270000   
   713       C         -5.42721000     11.10643000      8.98670000   
   714       C         16.90316000      8.77050000     30.81270000   
   715       C          4.57110000      9.62361000      8.98670000   
   716       C          6.90485000     10.25331000     30.81270000   
   717       C         -4.57110000      9.62361000     10.91300000   
   718       C         16.04705000     10.25331000     28.88640000   
   719       C         -0.85611000     19.02381000     10.91300000   
   720       C         12.33206000      0.85312000     28.88640000   
   721       C          5.42721000     11.10643000     10.91300000   
   722       C          6.04874000      8.77050000     28.88640000   
   723       C         16.04705000     10.25331000     10.91300000   
   724       C         -4.57110000      9.62361000     28.88640000   
   725       C         12.33206000      0.85312000     10.91300000   
   726       C         -0.85611000     19.02381000     28.88640000   
   727       C          6.04874000      8.77050000     10.91300000   
   728       C          5.42721000     11.10643000     28.88640000   
   729       C         11.10413000      2.07793000      8.47886000   
   730       C          0.37182000     17.79899000     31.32054000   
   731       C         15.60029000      8.57749000      8.47886000   
   732       C         -4.12434000     11.29944000     31.32054000   
   733       C          7.72343000      9.22150000      8.47886000   
   734       C          3.75252000     10.65543000     31.32054000   
   735       C          0.37182000     17.79899000      8.47886000   
   736       C         11.10413000      2.07793000     31.32054000   
   737       C         -4.12434000     11.29944000      8.47886000   
   738       C         15.60029000      8.57749000     31.32054000   
   739       C          3.75252000     10.65543000      8.47886000   
   740       C          7.72343000      9.22150000     31.32054000   
   741       C         -3.75252000     10.65543000     11.42084000   
   742       C         15.22847000      9.22150000     28.37856000   
   743       C         -0.37182000     17.79899000     11.42084000   
   744       C         11.84777000      2.07793000     28.37856000   
   745       C          4.12434000     11.29944000     11.42084000   
   746       C          7.35161000      8.57749000     28.37856000   
   747       C         15.22847000      9.22150000     11.42084000   
   748       C         -3.75252000     10.65543000     28.37856000   
   749       C         11.84777000      2.07793000     11.42084000   
   750       C         -0.37182000     17.79899000     28.37856000   
   751       C          7.35161000      8.57749000     11.42084000   
   752       C          4.12434000     11.29944000     28.37856000   
   753       C         10.33008000      2.85413000      7.61721000   
   754       C          1.14587000     17.02280000     32.18219000   
   755       C         15.31511000      7.51904000      7.61721000   
   756       C         -3.83916000     12.35788000     32.18219000   
   757       C          8.78266000      9.50376000      7.61721000   
   758       C          2.69329000     10.37317000     32.18219000   
   759       C          1.14587000     17.02280000      7.61721000   
   760       C         10.33008000      2.85413000     32.18219000   
   761       C         -3.83916000     12.35788000      7.61721000   
   762       C         15.31511000      7.51904000     32.18219000   
   763       C          2.69329000     10.37317000      7.61721000   
   764       C          8.78266000      9.50376000     32.18219000   
   765       C         -2.69329000     10.37317000     12.28249000   
   766       C         14.16924000      9.50376000     27.51691000   
   767       C         -1.14587000     17.02280000     12.28249000   
   768       C         12.62182000      2.85413000     27.51691000   
   769       C          3.83916000     12.35788000     12.28249000   
   770       C          7.63679000      7.51904000     27.51691000   
   771       C         14.16924000      9.50376000     12.28249000   
   772       C         -2.69329000     10.37317000     27.51691000   
   773       C         12.62182000      2.85413000     12.28249000   
   774       C         -1.14587000     17.02280000     27.51691000   
   775       C          7.63679000      7.51904000     12.28249000   
   776       C          3.83916000     12.35788000     27.51691000   
   777       C          9.08528000      2.39199000      7.16310000   
   778       C          2.39067000     17.48494000     32.63630000   
   779       C         16.33774000      6.67209000      7.16310000   
   780       C         -4.86179000     13.20484000     32.63630000   
   781       C          9.00483000     10.81285000      7.16310000   
   782       C          2.47112000      9.06408000     32.63630000   
   783       C          2.39067000     17.48494000      7.16310000   
   784       C          9.08528000      2.39199000     32.63630000   
   785       C         -4.86179000     13.20484000      7.16310000   
   786       C         16.33774000      6.67209000     32.63630000   
   787       C          2.47112000      9.06408000      7.16310000   
   788       C          9.00483000     10.81285000     32.63630000   
   789       C         -2.47112000      9.06408000     12.73660000   
   790       C         13.94707000     10.81285000     27.06280000   
   791       C         -2.39067000     17.48494000     12.73660000   
   792       C         13.86662000      2.39199000     27.06280000   
   793       C          4.86179000     13.20484000     12.73660000   
   794       C          6.61416000      6.67209000     27.06280000   
   795       C         13.94707000     10.81285000     12.73660000   
   796       C         -2.47112000      9.06408000     27.06280000   
   797       C         13.86662000      2.39199000     12.73660000   
   798       C         -2.39067000     17.48494000     27.06280000   
   799       C          6.61416000      6.67209000     12.73660000   
   800       C          4.86179000     13.20484000     27.06280000   
   801       C          2.58714000     13.22611000     21.31178000   
   802       C          8.88881000      6.65082000     18.48762000   
   803       C         -1.27176000     15.50440000     21.31178000   
   804       C         12.74771000      4.37253000     18.48762000   
   805       C         -1.31537000     11.02335000     21.31178000   
   806       C         12.79132000      8.85358000     18.48762000   
   807       C          8.88881000      6.65082000     21.31178000   
   808       C          2.58714000     13.22611000     18.48762000   
   809       C         12.74771000      4.37253000     21.31178000   
   810       C         -1.27176000     15.50440000     18.48762000   
   811       C         12.79132000      8.85358000     21.31178000   
   812       C         -1.31537000     11.02335000     18.48762000   
   813       C         10.16058000      8.85358000     38.38732000   
   814       C          1.31537000     11.02335000      1.41208000   
   815       C         14.06309000      6.65082000     38.38732000   
   816       C         -2.58714000     13.22611000      1.41208000   
   817       C         10.20419000      4.37253000     38.38732000   
   818       C          1.27176000     15.50440000      1.41208000   
   819       C          1.31537000     11.02335000     38.38732000   
   820       C         10.16058000      8.85358000      1.41208000   
   821       C         -2.58714000     13.22611000     38.38732000   
   822       C         14.06309000      6.65082000      1.41208000   
   823       C          1.27176000     15.50440000     38.38732000   
   824       C         10.20419000      4.37253000      1.41208000   
   825       C         -5.73797000      9.93846000      9.94985000   
   826       C         -5.73797000      9.93846000     29.84955000   
   827       C          5.73798000      9.93846000      9.94985000   
   828       C          5.73798000      9.93846000     29.84955000   
   829       C         11.47595000      0.00000000      9.94985000   
   830       C         11.47595000      0.00000000     29.84955000   
   831       C         -0.00001000     13.25129000     21.23616000   
   832       C         11.47596000      6.62564000     18.56324000   
   833       C         11.47596000      6.62564000     21.23616000   
   834       C         -0.00001000     13.25129000     18.56324000   
   835       C         11.47596000      6.62564000     38.46294000   
   836       C         -0.00001000     13.25129000      1.33646000   
   837       C         -0.00001000     13.25129000     38.46294000   
   838       C         11.47596000      6.62564000      1.33646000   
   839       N          5.81911000      5.91040000      4.01178000   
   840       N          5.65684000     13.96652000     35.78762000   
   841       N         14.92378000      2.08429000      4.01178000   
   842       N         -3.44783000     17.79263000     35.78762000   
   843       N         13.68496000     11.88223000      4.01178000   
   844       N         -2.20901000      7.99470000     35.78762000   
   845       N          5.65684000     13.96652000      4.01178000   
   846       N          5.81911000      5.91040000     35.78762000   
   847       N         -3.44783000     17.79263000      4.01178000   
   848       N         14.92378000      2.08429000     35.78762000   
   849       N         -2.20901000      7.99470000      4.01178000   
   850       N         13.68496000     11.88223000     35.78762000   
   851       N          2.20901000      7.99470000     15.88792000   
   852       N          9.26694000     11.88223000     23.91148000   
   853       N         -5.65684000     13.96652000     15.88792000   
   854       N         17.13279000      5.91040000     23.91148000   
   855       N          3.44783000     17.79263000     15.88792000   
   856       N          8.02812000      2.08429000     23.91148000   
   857       N          9.26694000     11.88223000     15.88792000   
   858       N          2.20901000      7.99470000     23.91148000   
   859       N         17.13279000      5.91040000     15.88792000   
   860       N         -5.65684000     13.96652000     23.91148000   
   861       N          8.02812000      2.08429000     15.88792000   
   862       N          3.44783000     17.79263000     23.91148000   
   863       F         10.09057000      3.92291000      4.94508000   
   864       F          1.38538000     15.95402000     34.85432000   
   865       F         14.50927000      6.77724000      4.94508000   
   866       F         -3.03332000     13.09969000     34.85432000   
   867       F          9.82800000      9.17678000      4.94508000   
   868       F          1.64795000     10.70015000     34.85432000   
   869       F          1.38538000     15.95402000      4.94508000   
   870       F         10.09057000      3.92291000     34.85432000   
   871       F         -3.03332000     13.09969000      4.94508000   
   872       F         14.50927000      6.77724000     34.85432000   
   873       F          1.64795000     10.70015000      4.94508000   
   874       F          9.82800000      9.17678000     34.85432000   
   875       F         -1.64795000     10.70015000     14.95462000   
   876       F         13.12390000      9.17678000     24.84478000   
   877       F         -1.38538000     15.95402000     14.95462000   
   878       F         12.86133000      3.92291000     24.84478000   
   879       F          3.03332000     13.09969000     14.95462000   
   880       F          8.44263000      6.77724000     24.84478000   
   881       F         13.12390000      9.17678000     14.95462000   
   882       F         -1.64795000     10.70015000     24.84478000   
   883       F         12.86133000      3.92291000     14.95462000   
   884       F         -1.38538000     15.95402000     24.84478000   
   885       F          8.44263000      6.77724000     14.95462000   
   886       F          3.03332000     13.09969000     24.84478000   
   887       F          1.70808000      6.01396000      3.51946000   
   888       F          9.76787000     13.86296000     36.27994000   
   889       F          5.41366000     18.34919000      3.51946000   
   890       F          6.06229000      1.52774000     36.27994000   
   891       F         -7.12175000     15.39071000      3.51946000   
   892       F         18.59770000      4.48622000     36.27994000   
   893       F          9.76787000     13.86296000      3.51946000   
   894       F          1.70808000      6.01396000     36.27994000   
   895       F          6.06229000      1.52774000      3.51946000   
   896       F          5.41366000     18.34919000     36.27994000   
   897       F         18.59770000      4.48622000      3.51946000   
   898       F         -7.12175000     15.39071000     36.27994000   
   899       F          4.35420000      4.48622000     16.38024000   
   900       F          7.12175000     15.39071000     23.41916000   
   901       F         13.18403000     13.86296000     16.38024000   
   902       F         -1.70808000      6.01396000     23.41916000   
   903       F         16.88961000      1.52774000     16.38024000   
   904       F         -5.41366000     18.34919000     23.41916000   
   905       F          7.12175000     15.39071000     16.38024000   
   906       F          4.35420000      4.48622000     23.41916000   
   907       F         -1.70808000      6.01396000     16.38024000   
   908       F         13.18403000     13.86296000     23.41916000   
   909       F         -5.41366000     18.34919000     16.38024000   
   910       F         16.88961000      1.52774000     23.41916000   
   911      Tv         22.95190000      0.00000000      0.00000000   
   912      Tv        -11.47595000     19.87693000      0.00000000   
   913      Tv          0.00000000      0.00000000     39.79940000   
 

                   THE SYSTEM IS A SOLID


                UNIT CELL TRANSLATION VECTORS

              X                Y              Z
    T1 =    22.9519000      0.0000000      0.0000000
    T2 =   -11.4759500     19.8769300      0.0000000
    T3 =     0.0000000      0.0000000     39.7994000


          CARTESIAN COORDINATES 

    NO.       ATOM           X           Y           Z

     1         H          3.9073      5.2352      4.4424
     2         H          7.5686     14.6417     35.3570
     3         H         16.4644      0.7663      4.4424
     4         H         -4.9885     19.1107     35.3570
     5         H         14.0561     13.8755      4.4424
     6         H         -2.5801      6.0014     35.3570
     7         H          7.5686     14.6417      4.4424
     8         H          3.9073      5.2352     35.3570
     9         H         -4.9885     19.1107      4.4424
    10         H         16.4644      0.7663     35.3570
    11         H         -2.5801      6.0014      4.4424
    12         H         14.0561     13.8755     35.3570
    13         H          2.5801      6.0014     15.4573
    14         H          8.8958     13.8755     24.3421
    15         H         -7.5686     14.6417     15.4573
    16         H         19.0446      5.2352     24.3421
    17         H          4.9885     19.1107     15.4573
    18         H          6.4875      0.7663     24.3421
    19         H          8.8958     13.8755     15.4573
    20         H          2.5801      6.0014     24.3421
    21         H         19.0446      5.2352     15.4573
    22         H         -7.5686     14.6417     24.3421
    23         H          6.4875      0.7663     15.4573
    24         H          4.9885     19.1107     24.3421
    25         H          8.4004      5.4817      3.7332
    26         H          3.0755     14.3953     36.0662
    27         H         14.0045      4.5341      3.7332
    28         H         -2.5285     15.3428     36.0662
    29         H         12.0230      9.8611      3.7332
    30         H         -0.5471     10.0158     36.0662
    31         H          3.0755     14.3953      3.7332
    32         H          8.4004      5.4817     36.0662
    33         H         -2.5285     15.3428      3.7332
    34         H         14.0045      4.5341     36.0662
    35         H         -0.5471     10.0158      3.7332
    36         H         12.0230      9.8611     36.0662
    37         H          0.5471     10.0158     16.1665
    38         H         10.9289      9.8611     23.6329
    39         H         -3.0755     14.3953     16.1665
    40         H         14.5515      5.4817     23.6329
    41         H          2.5285     15.3428     16.1665
    42         H          8.9474      4.5341     23.6329
    43         H         10.9289      9.8611     16.1665
    44         H          0.5471     10.0158     23.6329
    45         H         14.5515      5.4817     16.1665
    46         H         -3.0755     14.3953     23.6329
    47         H          8.9474      4.5341     16.1665
    48         H          2.5285     15.3428     23.6329
    49         H          6.4056      2.7927      7.3880
    50         H          5.0703     17.0842     32.4114
    51         H         17.3305      4.1511      7.3880
    52         H         -5.8546     15.7258     32.4114
    53         H         10.6917     12.9331      7.3880
    54         H          0.7843      6.9438     32.4114
    55         H          5.0703     17.0842      7.3880
    56         H          6.4056      2.7927     32.4114
    57         H         -5.8546     15.7258      7.3880
    58         H         17.3305      4.1511     32.4114
    59         H          0.7843      6.9438      7.3880
    60         H         10.6917     12.9331     32.4114
    61         H         -0.7843      6.9438     12.5117
    62         H         12.2602     12.9331     27.2877
    63         H         -5.0703     17.0842     12.5117
    64         H         16.5463      2.7927     27.2877
    65         H          5.8546     15.7258     12.5117
    66         H          5.6214      4.1511     27.2877
    67         H         12.2602     12.9331     12.5117
    68         H         -0.7843      6.9438     27.2877
    69         H         16.5463      2.7927     12.5117
    70         H         -5.0703     17.0842     27.2877
    71         H          5.6214      4.1511     12.5117
    72         H          5.8546     15.7258     27.2877
    73         H          4.9959      4.2851      6.0925
    74         H          6.4800     15.5919     33.7069
    75         H         16.7430      2.1841      6.0925
    76         H         -5.2670     17.6928     33.7069
    77         H         12.6890     13.4078      6.0925
    78         H         -1.2130      6.4691     33.7069
    79         H          6.4800     15.5919      6.0925
    80         H          4.9959      4.2851     33.7069
    81         H         -5.2670     17.6928      6.0925
    82         H         16.7430      2.1841     33.7069
    83         H         -1.2130      6.4691      6.0925
    84         H         12.6890     13.4078     33.7069
    85         H          1.2130      6.4691     13.8072
    86         H         10.2629     13.4078     25.9922
    87         H         -6.4800     15.5919     13.8072
    88         H         17.9560      4.2851     25.9922
    89         H          5.2670     17.6928     13.8072
    90         H          6.2089      2.1841     25.9922
    91         H         10.2629     13.4078     13.8072
    92         H          1.2130      6.4691     25.9922
    93         H         17.9560      4.2851     13.8072
    94         H         -6.4800     15.5919     25.9922
    95         H          6.2089      2.1841     13.8072
    96         H          5.2670     17.6928     25.9922
    97         H          0.7683      7.9021      1.9939
    98         H         10.7076     11.9749     37.8055
    99         H          4.2484     16.5913      1.9939
   100         H          7.2275      3.2857     37.8055
   101         H         -5.0167     15.2605      1.9939
   102         H         16.4927      4.6164     37.8055
   103         H         10.7076     11.9749      1.9939
   104         H          0.7683      7.9021     37.8055
   105         H          7.2275      3.2857      1.9939
   106         H          4.2484     16.5913     37.8055
   107         H         16.4927      4.6164      1.9939
   108         H         -5.0167     15.2605     37.8055
   109         H          6.4592      4.6164     17.9058
   110         H          5.0167     15.2605     21.8937
   111         H         12.2443     11.9749     17.9058
   112         H         -0.7683      7.9021     21.8937
   113         H         15.7243      3.2857     17.9058
   114         H         -4.2484     16.5913     21.8937
   115         H          5.0167     15.2605     17.9058
   116         H          6.4592      4.6164     21.8937
   117         H         -0.7683      7.9021     17.9058
   118         H         12.2443     11.9749     21.8937
   119         H         -4.2484     16.5913     17.9058
   120         H         15.7243      3.2857     21.8937
   121         H          4.5745      9.7464      1.2238
   122         H          6.9014     10.1305     38.5756
   123         H          0.7480     18.9654      1.2238
   124         H         10.7279      0.9116     38.5756
   125         H         -5.3225     11.0420      1.2238
   126         H         16.7985      8.8349     38.5756
   127         H          6.9014     10.1305      1.2238
   128         H          4.5745      9.7464     38.5756
   129         H         10.7279      0.9116      1.2238
   130         H          0.7480     18.9654     38.5756
   131         H         16.7985      8.8349      1.2238
   132         H         -5.3225     11.0420     38.5756
   133         H          6.1534      8.8349     18.6759
   134         H          5.3225     11.0420     21.1235
   135         H         16.0505     10.1305     18.6759
   136         H         -4.5745      9.7464     21.1235
   137         H         12.2240      0.9116     18.6759
   138         H         -0.7480     18.9654     21.1235
   139         H          5.3225     11.0420     18.6759
   140         H          6.1534      8.8349     21.1235
   141         H         -4.5745      9.7464     18.6759
   142         H         16.0505     10.1305     21.1235
   143         H         -0.7480     18.9654     18.6759
   144         H         12.2240      0.9116     21.1235
   145         H          5.6928      8.0478      2.5881
   146         H          5.7832     11.8292     37.2112
   147         H         13.1359      0.9062      2.5881
   148         H         -1.6600     18.9707     37.2112
   149         H         15.5991     10.9230      2.5881
   150         H         -4.1232      8.9540     37.2112
   151         H          5.7832     11.8292      2.5881
   152         H          5.6928      8.0478     37.2112
   153         H         -1.6600     18.9707      2.5881
   154         H         13.1359      0.9062     37.2112
   155         H         -4.1232      8.9540      2.5881
   156         H         15.5991     10.9230     37.2112
   157         H          4.1232      8.9540     17.3116
   158         H          7.3528     10.9230     22.4879
   159         H         -5.7832     11.8292     17.3116
   160         H         17.2591      8.0478     22.4879
   161         H          1.6600     18.9707     17.3116
   162         H          9.8160      0.9062     22.4879
   163         H          7.3528     10.9230     17.3116
   164         H          4.1232      8.9540     22.4879
   165         H         17.2591      8.0478     17.3116
   166         H         -5.7832     11.8292     22.4879
   167         H          9.8160      0.9062     17.3116
   168         H          1.6600     18.9707     22.4879
   169         H          7.7155      0.7156      7.1921
   170         H          3.7604     19.1614     32.6073
   171         H         18.4744      6.3240      7.1921
   172         H         -6.9985     13.5529     32.6073
   173         H          8.2379     12.8373      7.1921
   174         H          3.2380      7.0396     32.6073
   175         H          3.7604     19.1614      7.1921
   176         H          7.7155      0.7156     32.6073
   177         H         -6.9985     13.5529      7.1921
   178         H         18.4744      6.3240     32.6073
   179         H          3.2380      7.0396      7.1921
   180         H          8.2379     12.8373     32.6073
   181         H         -3.2380      7.0396     12.7075
   182         H         14.7140     12.8373     27.0919
   183         H         -3.7604     19.1614     12.7075
   184         H         15.2364      0.7156     27.0919
   185         H          6.9985     13.5529     12.7075
   186         H          4.4775      6.3240     27.0919
   187         H         14.7140     12.8373     12.7075
   188         H         -3.2380      7.0396     27.0919
   189         H         15.2364      0.7156     12.7075
   190         H         -3.7604     19.1614     27.0919
   191         H          4.4775      6.3240     12.7075
   192         H          6.9985     13.5529     27.0919
   193         H         -2.4236     19.2466      8.7193
   194         H         13.8996      0.6303     31.0801
   195         H         -3.9803      8.1547      8.7193
   196         H         15.4563     11.7222     31.0801
   197         H          6.4039     12.3525      8.7193
   198         H          5.0720      7.5244     31.0801
   199         H         13.8996      0.6303      8.7193
   200         H         -2.4236     19.2466     31.0801
   201         H         15.4563     11.7222      8.7193
   202         H         -3.9803      8.1547     31.0801
   203         H          5.0720      7.5244      8.7193
   204         H          6.4039     12.3525     31.0801
   205         H         17.8799      7.5244     11.1805
   206         H         -6.4039     12.3525     28.6190
   207         H          9.0523      0.6303     11.1805
   208         H          2.4236     19.2466     28.6190
   209         H          7.4956     11.7222     11.1805
   210         H          3.9803      8.1547     28.6190
   211         H         -6.4039     12.3525     11.1805
   212         H         17.8799      7.5244     28.6190
   213         H          2.4236     19.2466     11.1805
   214         H          9.0523      0.6303     28.6190
   215         H          3.9803      8.1547     11.1805
   216         H          7.4956     11.7222     28.6190
   217         H         12.0756      2.4554      8.7690
   218         H         -0.5996     17.4215     31.0304
   219         H         14.7877      9.2301      8.7690
   220         H         -3.3117     10.6469     31.0304
   221         H          7.5646      8.1915      8.7690
   222         H          3.9114     11.6854     31.0304
   223         H         -0.5996     17.4215      8.7690
   224         H         12.0756      2.4554     31.0304
   225         H         -3.3117     10.6469      8.7690
   226         H         14.7877      9.2301     31.0304
   227         H          3.9114     11.6854      8.7690
   228         H          7.5646      8.1915     31.0304
   229         H         -3.9114     11.6854     11.1307
   230         H         15.3873      8.1915     28.6687
[...]
  515  C   1.18477   0.92830   0.93040   0.95085
  516  C   1.18477   0.92830   0.93040   0.95085
  517  C   1.18477   0.93248   0.92622   0.95085
  518  C   1.18477   0.93248   0.92622   0.95085
  519  C   1.18477   0.92727   0.93143   0.95085
  520  C   1.18477   0.92727   0.93143   0.95085
  521  C   1.18477   0.92830   0.93040   0.95085
  522  C   1.18477   0.92830   0.93040   0.95085
  523  C   1.18477   0.93248   0.92622   0.95085
  524  C   1.18477   0.93248   0.92622   0.95085
  525  C   1.18477   0.93248   0.92622   0.95085
  526  C   1.18477   0.93248   0.92622   0.95085
  527  C   1.18477   0.92727   0.93143   0.95085
  528  C   1.18477   0.92727   0.93143   0.95085
  529  C   1.18477   0.92830   0.93040   0.95085
  530  C   1.18477   0.92830   0.93040   0.95085
  531  C   1.18477   0.93248   0.92622   0.95085
  532  C   1.18477   0.93248   0.92622   0.95085
  533  C   1.18477   0.92727   0.93143   0.95085
  534  C   1.18477   0.92727   0.93143   0.95085
  535  C   1.18477   0.92830   0.93040   0.95085
  536  C   1.18477   0.92830   0.93040   0.95085
  537  C   1.21639   0.93224   0.99261   0.99906
  538  C   1.21638   0.93224   0.99262   0.99906
  539  C   1.21639   0.99722   0.92763   0.99906
  540  C   1.21639   0.99722   0.92763   0.99906
  541  C   1.21638   0.95782   0.96704   0.99906
  542  C   1.21639   0.95782   0.96704   0.99906
  543  C   1.21638   0.93224   0.99262   0.99906
  544  C   1.21639   0.93224   0.99261   0.99906
  545  C   1.21639   0.99722   0.92763   0.99906
  546  C   1.21639   0.99722   0.92763   0.99906
  547  C   1.21639   0.95782   0.96704   0.99906
  548  C   1.21638   0.95782   0.96704   0.99906
  549  C   1.21639   0.95782   0.96704   0.99906
  550  C   1.21638   0.95782   0.96704   0.99906
  551  C   1.21638   0.93224   0.99262   0.99906
  552  C   1.21639   0.93224   0.99261   0.99906
  553  C   1.21639   0.99722   0.92763   0.99906
  554  C   1.21639   0.99722   0.92763   0.99906
  555  C   1.21638   0.95782   0.96704   0.99906
  556  C   1.21639   0.95782   0.96704   0.99906
  557  C   1.21639   0.93224   0.99261   0.99906
  558  C   1.21638   0.93224   0.99262   0.99906
  559  C   1.21639   0.99722   0.92763   0.99906
  560  C   1.21639   0.99722   0.92763   0.99906
  561  C   1.21862   1.00487   0.90852   0.92264
  562  C   1.21862   1.00487   0.90852   0.92264
  563  C   1.21862   0.92881   0.98458   0.92264
  564  C   1.21862   0.92881   0.98458   0.92264
  565  C   1.21862   0.93641   0.97698   0.92264
  566  C   1.21862   0.93641   0.97698   0.92264
  567  C   1.21862   1.00487   0.90852   0.92264
  568  C   1.21862   1.00487   0.90852   0.92264
  569  C   1.21862   0.92881   0.98458   0.92264
  570  C   1.21862   0.92881   0.98458   0.92264
  571  C   1.21862   0.93641   0.97698   0.92264
  572  C   1.21862   0.93641   0.97698   0.92264
  573  C   1.21862   0.93641   0.97698   0.92264
  574  C   1.21862   0.93641   0.97698   0.92264
  575  C   1.21862   1.00487   0.90852   0.92264
  576  C   1.21862   1.00487   0.90852   0.92264
  577  C   1.21862   0.92881   0.98458   0.92264
  578  C   1.21862   0.92881   0.98458   0.92264
  579  C   1.21862   0.93641   0.97698   0.92264
  580  C   1.21862   0.93641   0.97698   0.92264
  581  C   1.21862   1.00487   0.90852   0.92264
  582  C   1.21862   1.00487   0.90852   0.92264
  583  C   1.21862   0.92881   0.98458   0.92264
  584  C   1.21862   0.92881   0.98458   0.92264
  585  C   1.18960   0.90419   0.98193   1.02221
  586  C   1.18960   0.90419   0.98193   1.02221
  587  C   1.18960   0.96325   0.92288   1.02222
  588  C   1.18960   0.96325   0.92288   1.02222
  589  C   1.18960   0.96175   0.92438   1.02221
  590  C   1.18960   0.96175   0.92438   1.02221
  591  C   1.18960   0.90419   0.98193   1.02221
  592  C   1.18960   0.90419   0.98193   1.02221
  593  C   1.18960   0.96325   0.92288   1.02222
  594  C   1.18960   0.96325   0.92288   1.02222
  595  C   1.18960   0.96175   0.92438   1.02221
  596  C   1.18960   0.96175   0.92438   1.02221
  597  C   1.18960   0.96175   0.92438   1.02221
  598  C   1.18960   0.96175   0.92438   1.02221
  599  C   1.18960   0.90419   0.98193   1.02221
  600  C   1.18960   0.90419   0.98193   1.02221
  601  C   1.18960   0.96325   0.92288   1.02222
  602  C   1.18960   0.96325   0.92288   1.02222
  603  C   1.18960   0.96175   0.92438   1.02221
  604  C   1.18960   0.96175   0.92438   1.02221
  605  C   1.18960   0.90419   0.98193   1.02221
  606  C   1.18960   0.90419   0.98193   1.02221
  607  C   1.18960   0.96325   0.92288   1.02222
  608  C   1.18960   0.96325   0.92288   1.02222
  609  C   1.20833   0.98165   0.94777   0.92855
  610  C   1.20833   0.98165   0.94777   0.92855
  611  C   1.20833   0.98219   0.94723   0.92855
  612  C   1.20833   0.98219   0.94723   0.92855
  613  C   1.20833   0.93029   0.99913   0.92855
  614  C   1.20833   0.93029   0.99913   0.92855
  615  C   1.20833   0.98165   0.94777   0.92855
  616  C   1.20833   0.98165   0.94777   0.92855
  617  C   1.20833   0.98219   0.94723   0.92855
  618  C   1.20833   0.98219   0.94723   0.92855
  619  C   1.20833   0.93029   0.99913   0.92855
  620  C   1.20833   0.93029   0.99913   0.92855
  621  C   1.20833   0.93029   0.99913   0.92855
  622  C   1.20833   0.93029   0.99913   0.92855
  623  C   1.20833   0.98165   0.94777   0.92855
  624  C   1.20833   0.98165   0.94777   0.92855
  625  C   1.20833   0.98219   0.94723   0.92855
  626  C   1.20833   0.98219   0.94723   0.92855
  627  C   1.20833   0.93029   0.99913   0.92855
  628  C   1.20833   0.93029   0.99913   0.92855
  629  C   1.20833   0.98165   0.94777   0.92855
  630  C   1.20833   0.98165   0.94777   0.92855
  631  C   1.20833   0.98219   0.94723   0.92855
  632  C   1.20833   0.98219   0.94723   0.92855
  633  C   1.18796   0.99050   0.94431   0.90864
  634  C   1.18796   0.99050   0.94431   0.90864
  635  C   1.18796   0.99499   0.93981   0.90864
  636  C   1.18796   0.99499   0.93981   0.90864
  637  C   1.18796   0.91672   1.01809   0.90864
  638  C   1.18796   0.91672   1.01809   0.90864
  639  C   1.18796   0.99050   0.94431   0.90864
  640  C   1.18796   0.99050   0.94431   0.90864
  641  C   1.18796   0.99499   0.93981   0.90864
  642  C   1.18796   0.99499   0.93981   0.90864
  643  C   1.18796   0.91672   1.01809   0.90864
  644  C   1.18796   0.91672   1.01809   0.90864
  645  C   1.18796   0.91672   1.01809   0.90864
  646  C   1.18796   0.91671   1.01809   0.90864
  647  C   1.18796   0.99050   0.94431   0.90864
  648  C   1.18796   0.99050   0.94431   0.90864
  649  C   1.18796   0.99499   0.93981   0.90864
  650  C   1.18796   0.99499   0.93981   0.90864
  651  C   1.18796   0.91671   1.01809   0.90864
  652  C   1.18796   0.91672   1.01809   0.90864
  653  C   1.18796   0.99050   0.94431   0.90864
  654  C   1.18796   0.99050   0.94431   0.90864
  655  C   1.18796   0.99499   0.93981   0.90864
  656  C   1.18796   0.99499   0.93981   0.90864
  657  C   1.21615   0.99192   0.93494   0.97489
  658  C   1.21615   0.99192   0.93494   0.97489
  659  C   1.21615   0.95054   0.97633   0.97489
  660  C   1.21615   0.95054   0.97633   0.97489
  661  C   1.21615   0.94784   0.97903   0.97488
  662  C   1.21615   0.94784   0.97903   0.97488
  663  C   1.21615   0.99192   0.93494   0.97489
  664  C   1.21615   0.99192   0.93494   0.97489
  665  C   1.21615   0.95054   0.97633   0.97489
  666  C   1.21615   0.95054   0.97633   0.97489
  667  C   1.21615   0.94784   0.97903   0.97488
  668  C   1.21615   0.94784   0.97903   0.97488
  669  C   1.21615   0.94784   0.97903   0.97488
  670  C   1.21615   0.94784   0.97903   0.97488
  671  C   1.21615   0.99192   0.93494   0.97489
  672  C   1.21615   0.99192   0.93494   0.97489
  673  C   1.21615   0.95054   0.97633   0.97489
  674  C   1.21615   0.95054   0.97633   0.97489
  675  C   1.21615   0.94784   0.97903   0.97488
  676  C   1.21615   0.94784   0.97903   0.97488
  677  C   1.21615   0.99192   0.93494   0.97489
  678  C   1.21615   0.99192   0.93494   0.97489
  679  C   1.21615   0.95054   0.97633   0.97489
  680  C   1.21615   0.95054   0.97633   0.97489
  681  C   1.21867   0.94412   0.99108   0.96547
  682  C   1.21867   0.94412   0.99108   0.96547
  683  C   1.21867   0.98283   0.95236   0.96547
  684  C   1.21867   0.98283   0.95236   0.96547
  685  C   1.21868   0.97584   0.95935   0.96547
  686  C   1.21867   0.97584   0.95935   0.96547
  687  C   1.21867   0.94412   0.99108   0.96547
  688  C   1.21867   0.94412   0.99108   0.96547
  689  C   1.21867   0.98283   0.95236   0.96547
  690  C   1.21867   0.98283   0.95236   0.96547
  691  C   1.21867   0.97584   0.95935   0.96547
  692  C   1.21868   0.97584   0.95935   0.96547
  693  C   1.21867   0.97584   0.95935   0.96547
  694  C   1.21868   0.97584   0.95935   0.96547
  695  C   1.21867   0.94412   0.99108   0.96547
  696  C   1.21867   0.94412   0.99108   0.96547
  697  C   1.21867   0.98283   0.95236   0.96547
  698  C   1.21867   0.98283   0.95236   0.96547
  699  C   1.21868   0.97584   0.95935   0.96547
  700  C   1.21867   0.97584   0.95935   0.96547
  701  C   1.21867   0.94412   0.99108   0.96547
  702  C   1.21867   0.94412   0.99108   0.96547
  703  C   1.21867   0.98283   0.95236   0.96547
  704  C   1.21867   0.98283   0.95236   0.96547
  705  C   1.21527   0.93872   0.93931   0.96926
  706  C   1.21527   0.93872   0.93931   0.96926
  707  C   1.21527   0.93223   0.94581   0.96926
  708  C   1.21527   0.93223   0.94581   0.96926
  709  C   1.21527   0.94611   0.93193   0.96926
  710  C   1.21527   0.94611   0.93193   0.96926
  711  C   1.21527   0.93872   0.93931   0.96926
  712  C   1.21527   0.93872   0.93931   0.96926
  713  C   1.21527   0.93223   0.94581   0.96926
  714  C   1.21527   0.93223   0.94581   0.96926
  715  C   1.21527   0.94611   0.93193   0.96926
  716  C   1.21527   0.94611   0.93193   0.96926
  717  C   1.21527   0.94611   0.93193   0.96926
  718  C   1.21527   0.94611   0.93193   0.96926
  719  C   1.21527   0.93872   0.93931   0.96926
  720  C   1.21527   0.93872   0.93931   0.96926
  721  C   1.21527   0.93223   0.94581   0.96926
  722  C   1.21527   0.93223   0.94581   0.96926
  723  C   1.21527   0.94611   0.93193   0.96926
  724  C   1.21527   0.94611   0.93193   0.96926
  725  C   1.21527   0.93872   0.93931   0.96926
  726  C   1.21527   0.93872   0.93931   0.96926
  727  C   1.21527   0.93223   0.94581   0.96926
  728  C   1.21527   0.93223   0.94581   0.96926
  729  C   1.21850   0.99184   0.94046   0.96705
  730  C   1.21850   0.99184   0.94046   0.96705
  731  C   1.21850   0.95728   0.97502   0.96705
  732  C   1.21850   0.95728   0.97502   0.96705
  733  C   1.21850   0.94933   0.98297   0.96705
  734  C   1.21850   0.94933   0.98297   0.96705
  735  C   1.21850   0.99184   0.94046   0.96705
  736  C   1.21850   0.99184   0.94046   0.96705
  737  C   1.21850   0.95728   0.97502   0.96705
  738  C   1.21850   0.95728   0.97502   0.96705
  739  C   1.21850   0.94933   0.98297   0.96705
  740  C   1.21850   0.94933   0.98297   0.96705
  741  C   1.21850   0.94933   0.98297   0.96705
  742  C   1.21850   0.94933   0.98297   0.96705
  743  C   1.21850   0.99184   0.94046   0.96705
  744  C   1.21850   0.99184   0.94046   0.96705
  745  C   1.21850   0.95728   0.97502   0.96705
  746  C   1.21850   0.95728   0.97502   0.96705
  747  C   1.21850   0.94933   0.98297   0.96705
  748  C   1.21850   0.94933   0.98297   0.96705
  749  C   1.21850   0.99184   0.94046   0.96705
  750  C   1.21850   0.99184   0.94046   0.96705
  751  C   1.21850   0.95728   0.97502   0.96705
  752  C   1.21850   0.95728   0.97502   0.96705
  753  C   1.21656   0.92972   0.99364   0.96703
  754  C   1.21656   0.92972   0.99364   0.96703
  755  C   1.21656   0.98391   0.93945   0.96703
  756  C   1.21656   0.98391   0.93945   0.96703
  757  C   1.21656   0.97141   0.95195   0.96703
  758  C   1.21656   0.97141   0.95195   0.96703
  759  C   1.21656   0.92972   0.99364   0.96703
  760  C   1.21656   0.92972   0.99364   0.96703
  761  C   1.21656   0.98391   0.93945   0.96703
  762  C   1.21656   0.98391   0.93945   0.96703
  763  C   1.21656   0.97141   0.95195   0.96703
  764  C   1.21656   0.97141   0.95195   0.96703
  765  C   1.21656   0.97141   0.95195   0.96703
  766  C   1.21656   0.97141   0.95195   0.96703
  767  C   1.21656   0.92972   0.99364   0.96703
  768  C   1.21656   0.92972   0.99364   0.96703
  769  C   1.21656   0.98391   0.93945   0.96703
  770  C   1.21656   0.98391   0.93945   0.96703
  771  C   1.21656   0.97141   0.95195   0.96703
  772  C   1.21656   0.97141   0.95195   0.96703
  773  C   1.21656   0.92972   0.99364   0.96703
  774  C   1.21656   0.92972   0.99364   0.96703
  775  C   1.21656   0.98391   0.93945   0.96703
  776  C   1.21656   0.98391   0.93945   0.96703
  777  C   1.18810   0.93889   0.93563   0.97534
  778  C   1.18810   0.93889   0.93563   0.97534
  779  C   1.18810   0.93319   0.94133   0.97534
  780  C   1.18810   0.93319   0.94133   0.97534
  781  C   1.18810   0.93971   0.93481   0.97534
  782  C   1.18810   0.93971   0.93481   0.97534
  783  C   1.18810   0.93889   0.93563   0.97534
  784  C   1.18810   0.93889   0.93563   0.97534
  785  C   1.18810   0.93319   0.94133   0.97534
  786  C   1.18810   0.93319   0.94133   0.97534
  787  C   1.18810   0.93971   0.93481   0.97534
  788  C   1.18810   0.93971   0.93481   0.97534
  789  C   1.18810   0.93971   0.93481   0.97534
  790  C   1.18810   0.93971   0.93481   0.97534
  791  C   1.18810   0.93889   0.93563   0.97534
  792  C   1.18810   0.93889   0.93563   0.97534
  793  C   1.18810   0.93319   0.94133   0.97534
  794  C   1.18810   0.93319   0.94133   0.97534
  795  C   1.18810   0.93971   0.93481   0.97534
  796  C   1.18810   0.93971   0.93481   0.97534
  797  C   1.18810   0.93889   0.93563   0.97534
  798  C   1.18810   0.93889   0.93563   0.97534
  799  C   1.18810   0.93319   0.94133   0.97534
  800  C   1.18810   0.93319   0.94133   0.97534
  801  C   1.21271   0.89442   0.99358   0.99602
  802  C   1.21271   0.89442   0.99358   0.99602
  803  C   1.21271   0.97131   0.91669   0.99603
  804  C   1.21271   0.97131   0.91669   0.99603
  805  C   1.21271   0.96627   0.92173   0.99603
  806  C   1.21271   0.96627   0.92173   0.99603
  807  C   1.21271   0.89442   0.99358   0.99602
  808  C   1.21271   0.89442   0.99358   0.99602
  809  C   1.21271   0.97131   0.91669   0.99603
  810  C   1.21271   0.97131   0.91669   0.99603
  811  C   1.21271   0.96627   0.92173   0.99603
  812  C   1.21271   0.96627   0.92173   0.99603
  813  C   1.21271   0.96627   0.92173   0.99603
  814  C   1.21271   0.96627   0.92173   0.99603
  815  C   1.21271   0.89442   0.99358   0.99602
  816  C   1.21271   0.89442   0.99358   0.99602
  817  C   1.21271   0.97131   0.91669   0.99603
  818  C   1.21271   0.97131   0.91669   0.99603
  819  C   1.21271   0.96627   0.92173   0.99603
  820  C   1.21271   0.96627   0.92173   0.99603
  821  C   1.21271   0.89442   0.99358   0.99602
  822  C   1.21271   0.89442   0.99358   0.99602
  823  C   1.21271   0.97131   0.91669   0.99603
  824  C   1.21271   0.97131   0.91669   0.99603
  825  C   1.18654   0.90606   0.90557   0.88344
  826  C   1.18654   0.90606   0.90557   0.88344
  827  C   1.18654   0.90606   0.90557   0.88344
  828  C   1.18654   0.90606   0.90557   0.88344
  829  C   1.18654   0.90533   0.90630   0.88344
  830  C   1.18654   0.90533   0.90630   0.88344
  831  C   1.19447   0.89812   0.89812   0.99312
  832  C   1.19447   0.89812   0.89812   0.99312
  833  C   1.19447   0.89812   0.89812   0.99312
  834  C   1.19447   0.89812   0.89812   0.99312
  835  C   1.19447   0.89812   0.89812   0.99312
  836  C   1.19447   0.89812   0.89812   0.99312
  837  C   1.19447   0.89812   0.89812   0.99312
  838  C   1.19447   0.89812   0.89812   0.99312
  839  N   1.69146   1.10149   1.21701   1.17614
  840  N   1.69147   1.10149   1.21700   1.17614
  841  N   1.69146   1.32806   0.99045   1.17614
  842  N   1.69147   1.32805   0.99044   1.17614
  843  N   1.69147   1.04820   1.27030   1.17614
  844  N   1.69147   1.04820   1.27030   1.17614
  845  N   1.69147   1.10149   1.21700   1.17614
  846  N   1.69146   1.10149   1.21701   1.17614
  847  N   1.69147   1.32805   0.99044   1.17614
  848  N   1.69146   1.32806   0.99045   1.17614
  849  N   1.69147   1.04820   1.27030   1.17614
  850  N   1.69147   1.04820   1.27030   1.17614
  851  N   1.69147   1.04820   1.27030   1.17614
  852  N   1.69147   1.04820   1.27030   1.17614
  853  N   1.69147   1.10149   1.21700   1.17614
  854  N   1.69146   1.10149   1.21701   1.17614
  855  N   1.69147   1.32805   0.99044   1.17614
  856  N   1.69146   1.32806   0.99045   1.17614
  857  N   1.69147   1.04820   1.27030   1.17614
  858  N   1.69147   1.04820   1.27030   1.17614
  859  N   1.69146   1.10149   1.21701   1.17614
  860  N   1.69147   1.10149   1.21700   1.17614
  861  N   1.69146   1.32806   0.99045   1.17614
  862  N   1.69147   1.32805   0.99044   1.17614
  863  F   1.91713   1.31711   1.94875   1.91693
  864  F   1.91713   1.31711   1.94875   1.91693
  865  F   1.91714   1.82739   1.43848   1.91693
  866  F   1.91714   1.82739   1.43848   1.91693
  867  F   1.91714   1.75430   1.51156   1.91693
  868  F   1.91714   1.75430   1.51156   1.91693
  869  F   1.91713   1.31711   1.94875   1.91693
  870  F   1.91713   1.31711   1.94875   1.91693
  871  F   1.91714   1.82739   1.43848   1.91693
  872  F   1.91714   1.82739   1.43848   1.91693
  873  F   1.91714   1.75430   1.51156   1.91693
  874  F   1.91714   1.75430   1.51156   1.91693
  875  F   1.91714   1.75430   1.51156   1.91693
  876  F   1.91714   1.75430   1.51156   1.91693
  877  F   1.91713   1.31711   1.94875   1.91693
  878  F   1.91713   1.31711   1.94875   1.91693
  879  F   1.91714   1.82739   1.43848   1.91693
  880  F   1.91714   1.82739   1.43848   1.91693
  881  F   1.91714   1.75430   1.51156   1.91693
  882  F   1.91714   1.75430   1.51156   1.91693
  883  F   1.91713   1.31711   1.94875   1.91693
  884  F   1.91713   1.31711   1.94875   1.91693
  885  F   1.91714   1.82739   1.43848   1.91693
  886  F   1.91714   1.82739   1.43848   1.91693
  887  F   1.91730   1.75300   1.62269   1.81257
  888  F   1.91730   1.75300   1.62270   1.81257
  889  F   1.91729   1.42192   1.95378   1.81257
  890  F   1.91729   1.42192   1.95378   1.81257
  891  F   1.91730   1.88863   1.48707   1.81257
  892  F   1.91730   1.88863   1.48707   1.81257
  893  F   1.91730   1.75300   1.62270   1.81257
  894  F   1.91730   1.75300   1.62269   1.81257
  895  F   1.91729   1.42192   1.95378   1.81257
  896  F   1.91729   1.42192   1.95378   1.81257
  897  F   1.91730   1.88863   1.48707   1.81257
  898  F   1.91730   1.88863   1.48707   1.81257
  899  F   1.91730   1.88863   1.48707   1.81257
  900  F   1.91730   1.88863   1.48707   1.81257
  901  F   1.91730   1.75300   1.62270   1.81257
  902  F   1.91730   1.75300   1.62269   1.81257
  903  F   1.91729   1.42192   1.95378   1.81257
  904  F   1.91729   1.42192   1.95378   1.81257
  905  F   1.91730   1.88863   1.48707   1.81257
  906  F   1.91730   1.88863   1.48707   1.81257
  907  F   1.91730   1.75300   1.62269   1.81257
  908  F   1.91730   1.75300   1.62270   1.81257
  909  F   1.91729   1.42192   1.95378   1.81257
  910  F   1.91729   1.42192   1.95378   1.81257

 **********************
 *                    *
 * JOB ENDED NORMALLY *
 *                    *
 **********************



 TOTAL JOB TIME:           189.19 SECONDS

 == MOPAC DONE ==
