 *******************************************************************************
 ** Site#: 37037        For non-commercial use only           Version 21.158W **
 *******************************************************************************
 ** Cite this program as: MOPAC2016, Version: 21.158W, James J. P. Stewart,   **
 ** Stewart Computational Chemistry, web: HTTP://OpenMOPAC.net. Days left: 361**
 *******************************************************************************
 **                                                                           **
 **                                MOPAC2016                                  **
 **                                                                           **
 *******************************************************************************

                              PM7 CALCULATION RESULTS

 *******************************************************************************
 *  CALCULATION DONE:                                Fri Jun 11 08:58:15 2021  *
 *  T=         - A TIME OF 172800.0 SECONDS REQUESTED
 *  DUMP=N     - RESTART FILE WRITTEN EVERY 7200.0 SECONDS REQUESTED
 *  HTML       - WRITE HTML SCRIPT TO READ PDB FILE USING JSMOL
 *******************************************************************************
 html
  Isochorismic acid

   ATOM                 CHEMICAL                   X               Y               Z
  NUMBER                 SYMBOL               (ANGSTROMS)     (ANGSTROMS)     (ANGSTROMS)
 
     1       C(HETATM    1  C1  HET A   1)    0.01199805  *  -0.01415192  *   0.00355239  *
     2       C(HETATM    2  C2  HET A   1)   -0.96944736  *  -0.93084932  *   0.07439297  *
     3       C(HETATM    3  C3  HET A   1)   -0.67371694  *  -2.32191494  *   0.36576595  *
     4       C(HETATM    4  C4  HET A   1)    0.59019354  *  -2.75068128  *   0.48741325  *
     5       C(HETATM    5  C5  HET A   1)    1.77396919  *  -1.85045180  *   0.29395645  *
     6       C(HETATM    6  C6  HET A   1)    1.46415446  *  -0.33646470  *   0.23622358  *
     7       C(HETATM    7  C7  HET A   1)   -0.25308049  *   1.39166318  *  -0.31611466  *
     8       O(HETATM    8  O1  HET A   1)    0.53342776  *   2.21060472  *  -0.73578434  *
     9       O(HETATM    9  O2  HET A   1)   -1.54542038  *   1.73451135  *  -0.09347079  *
    10       O(HETATM   10  O3  HET A   1)    2.25462577  *   0.12528716  *  -0.84123596  *
    11       O(HETATM   11  O4  HET A   1)    2.54083551  *  -2.10167122  *   1.47859210  *
    12       C(HETATM   12  C8  HET A   1)    3.89363919  *  -1.96862433  *   1.40626352  *
    13       C(HETATM   13  C9  HET A   1)    4.63053253  *  -1.35108686  *   0.48743989  *
    14       C(HETATM   14  C10 HET A   1)    4.45524606  *  -2.66874374  *   2.59927516  *
    15       O(HETATM   15  O5  HET A   1)    4.30178585  *  -3.80999607  *   2.93739183  *
    16       O(HETATM   16  O6  HET A   1)    5.24356717  *  -1.81723501  *   3.30210208  *
    17       H(HETATM   17 1H2  HET A   1)   -2.02163175  *  -0.66408934  *  -0.07594259  *
    18       H(HETATM   18 1H3  HET A   1)   -1.52415823  *  -2.99363987  *   0.48527100  *
    19       H(HETATM   19  H4  HET A   1)    0.84328050  *  -3.78403564  *   0.73460945  *
    20       H(HETATM   20  H5  HET A   1)    2.34410910  *  -2.15289108  *  -0.62369967  *
    21       H(HETATM   21 1H6  HET A   1)    1.82951354  *   0.16654690  *   1.17025610  *
    22       H(HETATM   22 2H2  HET A   1)   -1.74147003  *   2.68337447  *  -0.30767110  *
    23       H(HETATM   23 2H3  HET A   1)    2.03505399  *   1.06570007  *  -1.05097839  *
    24       H(HETATM   24 1H9  HET A   1)    5.70606691  *  -1.27124722  *   0.54827928  *
    25       H(HETATM   25 2H9  HET A   1)    4.22635361  *  -0.85432883  *  -0.38718832  *
    26       H(HETATM   26 2H6  HET A   1)    5.64796073  *  -2.22853721  *   4.10762826  *
 

 General Reference for PM7:
 "Optimization of Parameters for Semiempirical Methods VI: More Modifications to the 
 NDDO Approximations and Re-optimization of Parameters", J. J. P. Stewart, J. Mol. Mod., 1:32, 19 (2013)
 https://link.springer.com/article/10.1007/s00894-012-1667-x

           Empirical Formula: C10 H10 O6  =    26 atoms



      MOLECULAR POINT GROUP   :   C1  


      RHF CALCULATION, NO. OF DOUBLY OCCUPIED LEVELS = 43


          Geometry optimization using EF

     GRADIENT =  0.98944 IS LESS THAN CUTOFF =  1.00000



 -------------------------------------------------------------------------------
 html
  Isochorismic acid



     GRADIENTS WERE INITIALLY ACCEPTABLY SMALL                
     SCF FIELD WAS ACHIEVED                                   


                              PM7 CALCULATION
                                                       MOPAC2016 (Version: 21.158W)
                                                       Fri Jun 11 08:58:15 2021
                                                       No. of days remaining = 361




          FINAL HEAT OF FORMATION =       -213.79195 KCAL/MOL =    -894.50552 KJ/MOL


          TOTAL ENERGY            =      -3134.37644 EV
          ELECTRONIC ENERGY       =     -17590.66697 EV  POINT GROUP:     C1  
          CORE-CORE REPULSION     =      14456.29053 EV
          COSMO AREA              =        234.30 SQUARE ANGSTROMS
          COSMO VOLUME            =        246.73 CUBIC ANGSTROMS

          GRADIENT NORM           =          0.98944 = 0.19405 PER ATOM
          IONIZATION POTENTIAL    =          9.908868 EV
          HOMO LUMO ENERGIES (EV) =         -9.909 -1.303
          NO. OF FILLED LEVELS    =         43
          MOLECULAR WEIGHT        =        226.1854

          MOLECULAR DIMENSIONS (Angstroms)

            Atom       Atom       Distance
            H    26    H    22     9.91087
            H    24    H    18     5.86563
            H    20    H    22     3.43554


          SCF CALCULATIONS        =          1
 
          WALL-CLOCK TIME         =          0.070 SECONDS
          COMPUTATION TIME        =          0.141 SECONDS




   ATOM                 CHEMICAL                   X               Y               Z
  NUMBER                 SYMBOL               (ANGSTROMS)     (ANGSTROMS)     (ANGSTROMS)
 
     1       C(HETATM    1  C1  HET A   1)    0.01199805  *  -0.01415192  *   0.00355239  *
     2       C(HETATM    2  C2  HET A   1)   -0.96944736  *  -0.93084932  *   0.07439297  *
     3       C(HETATM    3  C3  HET A   1)   -0.67371694  *  -2.32191494  *   0.36576595  *
     4       C(HETATM    4  C4  HET A   1)    0.59019354  *  -2.75068128  *   0.48741325  *
     5       C(HETATM    5  C5  HET A   1)    1.77396919  *  -1.85045180  *   0.29395645  *
     6       C(HETATM    6  C6  HET A   1)    1.46415446  *  -0.33646470  *   0.23622358  *
     7       C(HETATM    7  C7  HET A   1)   -0.25308049  *   1.39166318  *  -0.31611466  *
     8       O(HETATM    8  O1  HET A   1)    0.53342776  *   2.21060472  *  -0.73578434  *
     9       O(HETATM    9  O2  HET A   1)   -1.54542038  *   1.73451135  *  -0.09347079  *
    10       O(HETATM   10  O3  HET A   1)    2.25462577  *   0.12528716  *  -0.84123596  *
    11       O(HETATM   11  O4  HET A   1)    2.54083551  *  -2.10167122  *   1.47859210  *
    12       C(HETATM   12  C8  HET A   1)    3.89363919  *  -1.96862433  *   1.40626352  *
    13       C(HETATM   13  C9  HET A   1)    4.63053253  *  -1.35108686  *   0.48743989  *
    14       C(HETATM   14  C10 HET A   1)    4.45524606  *  -2.66874374  *   2.59927516  *
    15       O(HETATM   15  O5  HET A   1)    4.30178585  *  -3.80999607  *   2.93739183  *
    16       O(HETATM   16  O6  HET A   1)    5.24356717  *  -1.81723501  *   3.30210208  *
    17       H(HETATM   17 1H2  HET A   1)   -2.02163175  *  -0.66408934  *  -0.07594259  *
    18       H(HETATM   18 1H3  HET A   1)   -1.52415823  *  -2.99363987  *   0.48527100  *
    19       H(HETATM   19  H4  HET A   1)    0.84328050  *  -3.78403564  *   0.73460945  *
    20       H(HETATM   20  H5  HET A   1)    2.34410910  *  -2.15289108  *  -0.62369967  *
    21       H(HETATM   21 1H6  HET A   1)    1.82951354  *   0.16654690  *   1.17025610  *
    22       H(HETATM   22 2H2  HET A   1)   -1.74147003  *   2.68337447  *  -0.30767110  *
    23       H(HETATM   23 2H3  HET A   1)    2.03505399  *   1.06570007  *  -1.05097839  *
    24       H(HETATM   24 1H9  HET A   1)    5.70606691  *  -1.27124722  *   0.54827928  *
    25       H(HETATM   25 2H9  HET A   1)    4.22635361  *  -0.85432883  *  -0.38718832  *
    26       H(HETATM   26 2H6  HET A   1)    5.64796073  *  -2.22853721  *   4.10762826  *

                             CARTESIAN COORDINATES

   1    C        0.011998050    -0.014151920     0.003552390
   2    C       -0.969447360    -0.930849320     0.074392970
   3    C       -0.673716940    -2.321914940     0.365765950
   4    C        0.590193540    -2.750681280     0.487413250
   5    C        1.773969190    -1.850451800     0.293956450
   6    C        1.464154460    -0.336464700     0.236223580
   7    C       -0.253080490     1.391663180    -0.316114660
   8    O        0.533427760     2.210604720    -0.735784340
   9    O       -1.545420380     1.734511350    -0.093470790
  10    O        2.254625770     0.125287160    -0.841235960
  11    O        2.540835510    -2.101671220     1.478592100
  12    C        3.893639190    -1.968624330     1.406263520
  13    C        4.630532530    -1.351086860     0.487439890
  14    C        4.455246060    -2.668743740     2.599275160
  15    O        4.301785850    -3.809996070     2.937391830
  16    O        5.243567170    -1.817235010     3.302102080
  17    H       -2.021631750    -0.664089340    -0.075942590
  18    H       -1.524158230    -2.993639870     0.485271000
  19    H        0.843280500    -3.784035640     0.734609450
  20    H        2.344109100    -2.152891080    -0.623699670
  21    H        1.829513540     0.166546900     1.170256100
  22    H       -1.741470030     2.683374470    -0.307671100
  23    H        2.035053990     1.065700070    -1.050978390
  24    H        5.706066910    -1.271247220     0.548279280
  25    H        4.226353610    -0.854328830    -0.387188320
  26    H        5.647960730    -2.228537210     4.107628260


           Empirical Formula: C10 H10 O6  =    26 atoms



      MOLECULAR POINT GROUP   :   C1  


                  EIGENVALUES  
 -32.09444 -31.79955 -31.39097 -30.47957 -30.40742 -30.18024 -29.09267 -27.61962
 -27.00465 -25.89862 -23.48827 -23.36974 -22.07280 -20.63825 -20.03916 -18.31678
 -17.97063 -17.91338 -17.57834 -17.33508 -16.91723 -16.64040 -16.07321 -15.89094
 -15.72903 -15.29058 -15.02716 -14.38329 -14.12581 -14.02176 -13.55475 -13.34786
 -13.17902 -12.80312 -12.62692 -12.46400 -12.41113 -12.24332 -11.43496 -11.28257
 -11.04184 -10.24188  -9.90887  -1.30262  -0.02853   0.39407   0.84104   1.15855
   1.51813   1.57218   2.14971   2.51101   2.64929   3.03057   3.16008   3.28161
   3.70676   3.82258   4.07560   4.24103   4.44336   4.46385   4.81152   4.95645
   5.05192   5.09784   5.19476   5.32166   5.35915   5.37619   5.52290   5.86964
   6.05262   6.40524


              NET ATOMIC CHARGES AND DIPOLE CONTRIBUTIONS

  ATOM NO.                 TYPE                        CHARGE      No. of ELECS.   s-Pop       p-Pop       
    1          C(HETATM    1  C1  HET A   1)          -0.226756        4.2268     1.08188     3.14487
    2          C(HETATM    2  C2  HET A   1)          -0.008899        4.0089     1.09821     2.91069
    3          C(HETATM    3  C3  HET A   1)          -0.198081        4.1981     1.08163     3.11645
    4          C(HETATM    4  C4  HET A   1)          -0.101561        4.1016     1.10568     2.99589
    5          C(HETATM    5  C5  HET A   1)           0.069789        3.9302     1.09770     2.83251
    6          C(HETATM    6  C6  HET A   1)           0.138805        3.8612     1.08547     2.77573
    7          C(HETATM    7  C7  HET A   1)           0.653634        3.3464     1.10725     2.23911
    8          O(HETATM    8  O1  HET A   1)          -0.529720        6.5297     1.87871     4.65101
    9          O(HETATM    9  O2  HET A   1)          -0.543879        6.5439     1.83913     4.70475
   10          O(HETATM   10  O3  HET A   1)          -0.581506        6.5815     1.85193     4.72958
   11          O(HETATM   11  O4  HET A   1)          -0.335364        6.3354     1.87098     4.46438
   12          C(HETATM   12  C8  HET A   1)           0.140174        3.8598     1.08746     2.77237
   13          C(HETATM   13  C9  HET A   1)          -0.379784        4.3798     1.09464     3.28514
   14          C(HETATM   14  C10 HET A   1)           0.618114        3.3819     1.11546     2.26642
   15          O(HETATM   15  O5  HET A   1)          -0.466275        6.4663     1.87708     4.58920
   16          O(HETATM   16  O6  HET A   1)          -0.537442        6.5374     1.84074     4.69670
   17          H(HETATM   17 1H2  HET A   1)           0.172221        0.8278     0.82778
   18          H(HETATM   18 1H3  HET A   1)           0.165896        0.8341     0.83410
   19          H(HETATM   19  H4  HET A   1)           0.172315        0.8277     0.82769
   20          H(HETATM   20  H5  HET A   1)           0.175935        0.8241     0.82406
   21          H(HETATM   21 1H6  HET A   1)           0.158762        0.8412     0.84124
   22          H(HETATM   22 2H2  HET A   1)           0.361347        0.6387     0.63865
   23          H(HETATM   23 2H3  HET A   1)           0.358334        0.6417     0.64167
   24          H(HETATM   24 1H9  HET A   1)           0.174691        0.8253     0.82531
   25          H(HETATM   25 2H9  HET A   1)           0.196330        0.8037     0.80367
   26          H(HETATM   26 2H6  HET A   1)           0.352924        0.6471     0.64708

          NET CHARGE ON RESIDUES

      Residue         Charge  Anion or
                              Cation?
      HET A   1       +0.000
 


 DIPOLE           X         Y         Z       TOTAL
 POINT-CHG.    -2.306    -0.467    -0.561     2.419
 HYBRID        -0.108     0.729     0.283     0.790
 SUM           -2.414     0.262    -0.278     2.444


          ATOMIC ORBITAL ELECTRON POPULATIONS

                   Atom                  s        px        py        pz   
   C(HETATM    1  C1  HET A   1)   1.08188   1.03458   0.97993   1.13036
   C(HETATM    2  C2  HET A   1)   1.09821   1.07135   0.97546   0.86388
   C(HETATM    3  C3  HET A   1)   1.08163   1.05257   1.01870   1.04518
   C(HETATM    4  C4  HET A   1)   1.10568   0.98018   1.08080   0.93491
   C(HETATM    5  C5  HET A   1)   1.09770   0.93569   0.97171   0.92511
   C(HETATM    6  C6  HET A   1)   1.08547   0.87191   0.97187   0.93195
   C(HETATM    7  C7  HET A   1)   1.10725   0.72362   0.84346   0.67203
   O(HETATM    8  O1  HET A   1)   1.87871   1.58209   1.57076   1.49816
   O(HETATM    9  O2  HET A   1)   1.83913   1.42290   1.46109   1.82076
   O(HETATM   10  O3  HET A   1)   1.85193   1.67265   1.47362   1.58332
   O(HETATM   11  O4  HET A   1)   1.87098   1.22448   1.85463   1.38527
   C(HETATM   12  C8  HET A   1)   1.08746   0.81367   0.98892   0.96978
   C(HETATM   13  C9  HET A   1)   1.09464   1.12926   1.05757   1.09832
   C(HETATM   14  C10 HET A   1)   1.11546   0.70239   0.77484   0.78920
   O(HETATM   15  O5  HET A   1)   1.87708   1.61100   1.28321   1.69499
   O(HETATM   16  O6  HET A   1)   1.84074   1.66009   1.53587   1.50074
   H(HETATM   17 1H2  HET A   1)   0.82778
   H(HETATM   18 1H3  HET A   1)   0.83410
   H(HETATM   19  H4  HET A   1)   0.82769
   H(HETATM   20  H5  HET A   1)   0.82406
   H(HETATM   21 1H6  HET A   1)   0.84124
   H(HETATM   22 2H2  HET A   1)   0.63865
   H(HETATM   23 2H3  HET A   1)   0.64167
   H(HETATM   24 1H9  HET A   1)   0.82531
   H(HETATM   25 2H9  HET A   1)   0.80367
   H(HETATM   26 2H6  HET A   1)   0.64708

 **********************
 *                    *
 * JOB ENDED NORMALLY *
 *                    *
 **********************



 TOTAL JOB TIME:             0.09 SECONDS

 == MOPAC DONE ==
