 *******************************************************************************
 ** Site#: 37037        For non-commercial use only           Version 21.158W **
 *******************************************************************************
 ** Cite this program as: MOPAC2016, Version: 21.158W, James J. P. Stewart,   **
 ** Stewart Computational Chemistry, web: HTTP://OpenMOPAC.net. Days left: 361**
 *******************************************************************************
 **                                                                           **
 **                                MOPAC2016                                  **
 **                                                                           **
 *******************************************************************************

                              PM7 CALCULATION RESULTS

 *******************************************************************************
 *  CALCULATION DONE:                                Fri Jun 11 09:02:05 2021  *
 *  GEO_DAT    - DATA SET GEOMETRY IS IN FILE "Saddle.arc"
 *  TS         - USE EF ROUTINE FOR TS SEARCH
 *  T=         - A TIME OF 172800.0 SECONDS REQUESTED
 *  DUMP=N     - RESTART FILE WRITTEN EVERY 7200.0 SECONDS REQUESTED
 *******************************************************************************
 TS geo_dat="Saddle.arc"
 Refine transition state, starting with the geometry from SADDLE

   ATOM                 CHEMICAL                   X               Y               Z
  NUMBER                 SYMBOL               (ANGSTROMS)     (ANGSTROMS)     (ANGSTROMS)
 
     1       C(HETATM    1  C1  HET A   1)    0.28333955  *  -0.04078973  *   0.03834087  *
     2       C(HETATM    2  C2  HET A   1)   -0.78887007  *  -0.77957513  *   0.43095339  *
     3       C(HETATM    3  C3  HET A   1)   -0.65809791  *  -2.20191914  *   0.60065077  *
     4       C(HETATM    4  C4  HET A   1)    0.51488650  *  -2.82674972  *   0.36584596  *
     5       C(HETATM    5  C5  HET A   1)    1.73240561  *  -2.09007128  *  -0.01859711  *
     6       C(HETATM    6  C6  HET A   1)    1.60837277  *  -0.62245267  *  -0.09869694  *
     7       C(HETATM    7  C7  HET A   1)    0.11012117  *   1.36149020  *  -0.37428918  *
     8       O(HETATM    8  O1  HET A   1)    0.95496999  *   2.11692757  *  -0.80049327  *
     9       O(HETATM    9  O2  HET A   1)   -1.18198676  *   1.76642158  *  -0.29097579  *
    10       O(HETATM   10  O3  HET A   1)    2.38523991  *  -0.14912712  *  -1.16536938  *
    11       O(HETATM   11  O4  HET A   1)    2.68724994  *  -2.62450650  *   1.12954465  *
    12       C(HETATM   12  C8  HET A   1)    3.58572857  *  -1.86441468  *   1.67274498  *
    13       C(HETATM   13  C9  HET A   1)    3.94053140  *  -0.62231668  *   1.20153694  *
    14       C(HETATM   14  C10 HET A   1)    4.26203769  *  -2.53131637  *   2.84756439  *
    15       O(HETATM   15  O5  HET A   1)    4.36107008  *  -3.71004389  *   3.04987057  *
    16       O(HETATM   16  O6  HET A   1)    4.90704667  *  -1.62621083  *   3.62549928  *
    17       H(HETATM   17 1H2  HET A   1)   -1.78057253  *  -0.33745458  *   0.55128378  *
    18       H(HETATM   18 1H3  HET A   1)   -1.55798091  *  -2.76233353  *   0.86084319  *
    19       H(HETATM   19  H4  HET A   1)    0.61520925  *  -3.90943709  *   0.42931536  *
    20       H(HETATM   20  H5  HET A   1)    2.33326978  *  -2.53689843  *  -0.84283053  *
    21       H(HETATM   21 1H6  HET A   1)    4.10090661  *  -0.43872761  *   0.12843581  *
    22       H(HETATM   22 2H2  HET A   1)   -1.32538870  *   2.68825662  *  -0.62958613  *
    23       H(HETATM   23 2H3  HET A   1)    2.21911276  *   0.81606246  *  -1.30115875  *
    24       H(HETATM   24 1H9  HET A   1)    4.55259764  *   0.04883094  *   1.79123801  *
    25       H(HETATM   25 2H9  HET A   1)    2.56233288  *  -0.15931707  *   0.91715350  *
    26       H(HETATM   26 2H6  HET A   1)    5.46644012  *  -2.05157118  *   4.33228136  *
 

 General Reference for PM7:
 "Optimization of Parameters for Semiempirical Methods VI: More Modifications to the 
 NDDO Approximations and Re-optimization of Parameters", J. J. P. Stewart, J. Mol. Mod., 1:32, 19 (2013)
 https://link.springer.com/article/10.1007/s00894-012-1667-x

           Empirical Formula: C10 H10 O6  =    26 atoms



      MOLECULAR POINT GROUP   :   C1  


      RHF CALCULATION, NO. OF DOUBLY OCCUPIED LEVELS = 43


          Transition state refinement using EF

          HESSIAN CALCULATED NUMERICALLY

 CYCLE:     1 TIME:   1.109 TIME LEFT:  2.00D  GRAD.:    48.877 HEAT: -166.3319
 CYCLE:     2 TIME:   0.023 TIME LEFT:  2.00D  GRAD.:     9.608 HEAT: -165.7991
 CYCLE:     3 TIME:   0.029 TIME LEFT:  2.00D  GRAD.:    11.242 HEAT: -166.7292
 CYCLE:     4 TIME:   0.021 TIME LEFT:  2.00D  GRAD.:     8.347 HEAT: -167.9876
 CYCLE:     5 TIME:   0.020 TIME LEFT:  2.00D  GRAD.:    10.821 HEAT: -169.6459
 CYCLE:     6 TIME:   0.080 TIME LEFT:  2.00D  GRAD.:     9.947 HEAT: -171.0566
 CYCLE:     7 TIME:   0.041 TIME LEFT:  2.00D  GRAD.:    45.625 HEAT: -171.7615
 CYCLE:     8 TIME:   0.080 TIME LEFT:  2.00D  GRAD.:    56.518 HEAT: -171.9833
 CYCLE:     9 TIME:   0.070 TIME LEFT:  2.00D  GRAD.:    49.028 HEAT: -172.5903
 CYCLE:    10 TIME:   0.051 TIME LEFT:  2.00D  GRAD.:    38.407 HEAT: -173.0743
 CYCLE:    11 TIME:   0.059 TIME LEFT:  2.00D  GRAD.:    35.760 HEAT: -173.5153
 CYCLE:    12 TIME:   0.082 TIME LEFT:  2.00D  GRAD.:    39.543 HEAT: -173.7984
 CYCLE:    13 TIME:   0.070 TIME LEFT:  2.00D  GRAD.:    46.793 HEAT: -174.0428
 CYCLE:    14 TIME:   0.072 TIME LEFT:  2.00D  GRAD.:    49.300 HEAT: -174.3742
 CYCLE:    15 TIME:   0.111 TIME LEFT:  2.00D  GRAD.:    33.791 HEAT: -174.9028
 CYCLE:    16 TIME:   0.109 TIME LEFT:  2.00D  GRAD.:    31.149 HEAT: -175.2165
 CYCLE:    17 TIME:   0.111 TIME LEFT:  2.00D  GRAD.:    22.581 HEAT: -175.5294
 CYCLE:    18 TIME:   0.119 TIME LEFT:  2.00D  GRAD.:    27.814 HEAT: -175.7420
 CYCLE:    19 TIME:   0.123 TIME LEFT:  2.00D  GRAD.:    25.244 HEAT: -175.8653
 CYCLE:    20 TIME:   0.393 TIME LEFT:  2.00D  GRAD.:    30.481 HEAT: -175.9341
 CYCLE:    21 TIME:   0.086 TIME LEFT:  2.00D  GRAD.:    25.808 HEAT: -176.0627
 CYCLE:    22 TIME:   0.115 TIME LEFT:  2.00D  GRAD.:    26.233 HEAT: -176.1557
 CYCLE:    23 TIME:   0.107 TIME LEFT:  2.00D  GRAD.:    20.916 HEAT: -176.2680
 CYCLE:    24 TIME:   0.117 TIME LEFT:  2.00D  GRAD.:    21.455 HEAT: -176.3412
 CYCLE:    25 TIME:   0.061 TIME LEFT:  2.00D  GRAD.:    21.177 HEAT: -176.4053
 CYCLE:    26 TIME:   0.053 TIME LEFT:  2.00D  GRAD.:    25.778 HEAT: -176.4166
 CYCLE:    27 TIME:   0.018 TIME LEFT:  2.00D  GRAD.:    11.894 HEAT: -176.5599
 CYCLE:    28 TIME:   0.029 TIME LEFT:  2.00D  GRAD.:     6.793 HEAT: -176.6139
 CYCLE:    29 TIME:   0.018 TIME LEFT:  2.00D  GRAD.:    11.084 HEAT: -176.6278
 CYCLE:    30 TIME:   0.021 TIME LEFT:  2.00D  GRAD.:    13.467 HEAT: -176.6460
 CYCLE:    31 TIME:   0.016 TIME LEFT:  2.00D  GRAD.:    10.743 HEAT: -176.6869
 CYCLE:    32 TIME:   0.016 TIME LEFT:  2.00D  GRAD.:     8.347 HEAT: -176.7199
 CYCLE:    33 TIME:   0.031 TIME LEFT:  2.00D  GRAD.:     7.910 HEAT: -176.7433
 CYCLE:    34 TIME:   0.021 TIME LEFT:  2.00D  GRAD.:     8.376 HEAT: -176.7666
 CYCLE:    35 TIME:   0.016 TIME LEFT:  2.00D  GRAD.:     7.884 HEAT: -176.7924
 CYCLE:    36 TIME:   0.016 TIME LEFT:  2.00D  GRAD.:     9.532 HEAT: -176.8117
 CYCLE:    37 TIME:   0.031 TIME LEFT:  2.00D  GRAD.:    10.138 HEAT: -176.8266
 CYCLE:    38 TIME:   0.016 TIME LEFT:  2.00D  GRAD.:    10.625 HEAT: -176.8485
 CYCLE:    39 TIME:   0.023 TIME LEFT:  2.00D  GRAD.:    10.594 HEAT: -176.8654
 CYCLE:    40 TIME:   0.016 TIME LEFT:  2.00D  GRAD.:    12.397 HEAT: -176.8741
 CYCLE:    41 TIME:   0.014 TIME LEFT:  2.00D  GRAD.:     6.798 HEAT: -176.9019
 CYCLE:    42 TIME:   0.018 TIME LEFT:  2.00D  GRAD.:     4.380 HEAT: -176.9146
 CYCLE:    43 TIME:   0.016 TIME LEFT:  2.00D  GRAD.:     3.469 HEAT: -176.9229
 CYCLE:    44 TIME:   0.031 TIME LEFT:  2.00D  GRAD.:     3.156 HEAT: -176.9302
 CYCLE:    45 TIME:   0.021 TIME LEFT:  2.00D  GRAD.:     2.947 HEAT: -176.9383
 CYCLE:    46 TIME:   0.016 TIME LEFT:  2.00D  GRAD.:     2.287 HEAT: -176.9464
 CYCLE:    47 TIME:   0.016 TIME LEFT:  2.00D  GRAD.:     2.651 HEAT: -176.9532
 CYCLE:    48 TIME:   0.016 TIME LEFT:  2.00D  GRAD.:     2.880 HEAT: -176.9593
 CYCLE:    49 TIME:   0.016 TIME LEFT:  2.00D  GRAD.:     4.053 HEAT: -176.9643
 CYCLE:    50 TIME:   0.016 TIME LEFT:  2.00D  GRAD.:     4.870 HEAT: -176.9689
 CYCLE:    51 TIME:   0.008 TIME LEFT:  2.00D  GRAD.:     5.233 HEAT: -176.9743
 CYCLE:    52 TIME:   0.014 TIME LEFT:  2.00D  GRAD.:     5.007 HEAT: -176.9803
 CYCLE:    53 TIME:   0.033 TIME LEFT:  2.00D  GRAD.:     5.366 HEAT: -176.9848
 CYCLE:    54 TIME:   0.014 TIME LEFT:  2.00D  GRAD.:     4.404 HEAT: -176.9901
 CYCLE:    55 TIME:   0.016 TIME LEFT:  2.00D  GRAD.:     3.715 HEAT: -176.9958
 CYCLE:    56 TIME:   0.023 TIME LEFT:  2.00D  GRAD.:     2.697 HEAT: -177.0012
 CYCLE:    57 TIME:   0.016 TIME LEFT:  2.00D  GRAD.:     2.080 HEAT: -177.0062
 CYCLE:    58 TIME:   0.016 TIME LEFT:  2.00D  GRAD.:     1.605 HEAT: -177.0108
 CYCLE:    59 TIME:   0.016 TIME LEFT:  2.00D  GRAD.:     0.919 HEAT: -177.0154

     GRADIENT =  0.91923 IS LESS THAN CUTOFF =  1.00000



 -------------------------------------------------------------------------------
 TS
 Refine transition state, starting with the geometry from SADDLE



     GEOMETRY OPTIMISED USING EIGENVECTOR FOLLOWING (TS).     
     SCF FIELD WAS ACHIEVED                                   


                              PM7 CALCULATION
                                                       MOPAC2016 (Version: 21.158W)
                                                       Fri Jun 11 09:02:09 2021
                                                       No. of days remaining = 361




          FINAL HEAT OF FORMATION =       -177.01538 KCAL/MOL =    -740.63234 KJ/MOL


          TOTAL ENERGY            =      -3132.72537 EV
          ELECTRONIC ENERGY       =     -18137.06211 EV  POINT GROUP:     C1  
          CORE-CORE REPULSION     =      15004.33674 EV
          COSMO AREA              =        223.36 SQUARE ANGSTROMS
          COSMO VOLUME            =        246.07 CUBIC ANGSTROMS

          GRADIENT NORM           =          0.91923 = 0.18028 PER ATOM
          IONIZATION POTENTIAL    =          8.845730 EV
          HOMO LUMO ENERGIES (EV) =         -8.846 -1.391
          NO. OF FILLED LEVELS    =         43
          MOLECULAR WEIGHT        =        226.1854

          MOLECULAR DIMENSIONS (Angstroms)

            Atom       Atom       Distance
            H    26    H    22     8.10017
            H    21    H    18     5.98324
            H    20    H    22     4.89715


          SCF CALCULATIONS        =        140
 
          WALL-CLOCK TIME         =          4.082 SECONDS
          COMPUTATION TIME        =         13.641 SECONDS




   ATOM                 CHEMICAL                   X               Y               Z
  NUMBER                 SYMBOL               (ANGSTROMS)     (ANGSTROMS)     (ANGSTROMS)
 
     1       C(HETATM    1  C1  HET A   1)    0.52963312  *  -0.17547679  *   0.12415721  *
     2       C(HETATM    2  C2  HET A   1)   -0.28627967  *  -0.92799575  *   0.91511312  *
     3       C(HETATM    3  C3  HET A   1)   -0.07147994  *  -2.33795504  *   1.04139972  *
     4       C(HETATM    4  C4  HET A   1)    0.93867194  *  -2.95289383  *   0.37810711  *
     5       C(HETATM    5  C5  HET A   1)    1.93688176  *  -2.19655398  *  -0.38149436  *
     6       C(HETATM    6  C6  HET A   1)    1.73329817  *  -0.74959192  *  -0.45871617  *
     7       C(HETATM    7  C7  HET A   1)    0.24969446  *   1.23223531  *  -0.16488251  *
     8       O(HETATM    8  O1  HET A   1)    0.82116565  *   1.94187187  *  -0.96537875  *
     9       O(HETATM    9  O2  HET A   1)   -0.77459143  *   1.72582215  *   0.56949645  *
    10       O(HETATM   10  O3  HET A   1)    2.22577752  *  -0.24996307  *  -1.64931133  *
    11       O(HETATM   11  O4  HET A   1)    3.25697272  *  -2.59840897  *   0.45441339  *
    12       C(HETATM   12  C8  HET A   1)    3.63512203  *  -1.77147023  *   1.37419846  *
    13       C(HETATM   13  C9  HET A   1)    3.96741046  *  -0.46236359  *   1.04758863  *
    14       C(HETATM   14  C10 HET A   1)    3.47480302  *  -2.25660617  *   2.77438615  *
    15       O(HETATM   15  O5  HET A   1)    2.75494599  *  -3.12314533  *   3.19162868  *
    16       O(HETATM   16  O6  HET A   1)    4.29779045  *  -1.56588662  *   3.60680322  *
    17       H(HETATM   17 1H2  HET A   1)   -1.14130358  *  -0.48494707  *   1.43415338  *
    18       H(HETATM   18 1H3  HET A   1)   -0.77134330  *  -2.90756229  *   1.65435449  *
    19       H(HETATM   19  H4  HET A   1)    1.06901782  *  -4.03663123  *   0.40448378  *
    20       H(HETATM   20  H5  HET A   1)    2.31914415  *  -2.66263007  *  -1.31611811  *
    21       H(HETATM   21 1H6  HET A   1)    4.46875869  *  -0.24251529  *   0.09927289  *
    22       H(HETATM   22 2H2  HET A   1)   -0.98306704  *   2.67442542  *   0.35867130  *
    23       H(HETATM   23 2H3  HET A   1)    1.90808181  *   0.68147500  *  -1.79777166  *
    24       H(HETATM   24 1H9  HET A   1)    4.21718358  *   0.25459704  *   1.82371031  *
    25       H(HETATM   25 2H9  HET A   1)    2.71200380  *  -0.15446104  *   0.44187447  *
    26       H(HETATM   26 2H6  HET A   1)    4.25155521  *  -1.87231287  *   4.54658222  *

                             CARTESIAN COORDINATES

   1    C        0.529633115    -0.175476787     0.124157209
   2    C       -0.286279669    -0.927995751     0.915113116
   3    C       -0.071479942    -2.337955041     1.041399719
   4    C        0.938671945    -2.952893828     0.378107107
   5    C        1.936881763    -2.196553983    -0.381494365
   6    C        1.733298173    -0.749591915    -0.458716167
   7    C        0.249694461     1.232235306    -0.164882508
   8    O        0.821165649     1.941871869    -0.965378748
   9    O       -0.774591433     1.725822147     0.569496455
  10    O        2.225777525    -0.249963069    -1.649311332
  11    O        3.256972719    -2.598408974     0.454413387
  12    C        3.635122030    -1.771470234     1.374198464
  13    C        3.967410461    -0.462363591     1.047588631
  14    C        3.474803019    -2.256606172     2.774386148
  15    O        2.754945990    -3.123145334     3.191628679
  16    O        4.297790446    -1.565886622     3.606803218
  17    H       -1.141303579    -0.484947073     1.434153383
  18    H       -0.771343296    -2.907562294     1.654354495
  19    H        1.069017819    -4.036631229     0.404483783
  20    H        2.319144145    -2.662630069    -1.316118108
  21    H        4.468758690    -0.242515285     0.099272893
  22    H       -0.983067038     2.674425424     0.358671299
  23    H        1.908081808     0.681475003    -1.797771658
  24    H        4.217183581     0.254597036     1.823710307
  25    H        2.712003799    -0.154461045     0.441874474
  26    H        4.251555210    -1.872312868     4.546582223


           Empirical Formula: C10 H10 O6  =    26 atoms



      MOLECULAR POINT GROUP   :   C1  


                  EIGENVALUES  
 -32.22797 -31.85315 -31.48734 -30.60670 -30.41289 -30.15710 -29.48010 -27.53825
 -26.97609 -26.01597 -23.72997 -23.21281 -21.98540 -20.75163 -19.79523 -18.28832
 -18.09334 -17.71731 -17.55442 -17.17238 -17.02065 -16.47459 -16.07668 -15.97827
 -15.70661 -15.33591 -14.84844 -14.40418 -14.22762 -14.00204 -13.77223 -13.54842
 -13.00461 -12.80689 -12.74728 -12.58495 -12.30048 -12.03669 -11.69098 -11.53444
 -10.79806 -10.07155  -8.84573  -1.39055  -1.12900   0.19648   0.86910   1.22096
   1.45708   1.47120   1.93262   2.50481   2.71216   2.99993   3.38886   3.65436
   3.76282   3.83104   3.91465   4.13134   4.23801   4.28270   4.42044   4.56897
   4.94930   5.04523   5.22892   5.30172   5.42182   5.53146   5.59709   5.71957
   5.93887   5.95072


              NET ATOMIC CHARGES AND DIPOLE CONTRIBUTIONS

  ATOM NO.                 TYPE                        CHARGE      No. of ELECS.   s-Pop       p-Pop       
    1          C(HETATM    1  C1  HET A   1)          -0.225370        4.2254     1.06911     3.15626
    2          C(HETATM    2  C2  HET A   1)          -0.043321        4.0433     1.09357     2.94975
    3          C(HETATM    3  C3  HET A   1)          -0.182913        4.1829     1.08278     3.10013
    4          C(HETATM    4  C4  HET A   1)          -0.105521        4.1055     1.10036     3.00517
    5          C(HETATM    5  C5  HET A   1)           0.029750        3.9703     1.09932     2.87093
    6          C(HETATM    6  C6  HET A   1)           0.076216        3.9238     1.08724     2.83655
    7          C(HETATM    7  C7  HET A   1)           0.656915        3.3431     1.10567     2.23742
    8          O(HETATM    8  O1  HET A   1)          -0.542572        6.5426     1.87899     4.66358
    9          O(HETATM    9  O2  HET A   1)          -0.535936        6.5359     1.83899     4.69695
   10          O(HETATM   10  O3  HET A   1)          -0.516330        6.5163     1.84855     4.66778
   11          O(HETATM   11  O4  HET A   1)          -0.337916        6.3379     1.89116     4.44676
   12          C(HETATM   12  C8  HET A   1)           0.186053        3.8139     1.09738     2.71657
   13          C(HETATM   13  C9  HET A   1)          -0.429713        4.4297     1.09088     3.33883
   14          C(HETATM   14  C10 HET A   1)           0.581656        3.4183     1.12916     2.28918
   15          O(HETATM   15  O5  HET A   1)          -0.469824        6.4698     1.87708     4.59275
   16          O(HETATM   16  O6  HET A   1)          -0.550068        6.5501     1.83972     4.71035
   17          H(HETATM   17 1H2  HET A   1)           0.174809        0.8252     0.82519
   18          H(HETATM   18 1H3  HET A   1)           0.167917        0.8321     0.83208
   19          H(HETATM   19  H4  HET A   1)           0.172069        0.8279     0.82793
   20          H(HETATM   20  H5  HET A   1)           0.190640        0.8094     0.80936
   21          H(HETATM   21 1H6  HET A   1)           0.196546        0.8035     0.80345
   22          H(HETATM   22 2H2  HET A   1)           0.362652        0.6373     0.63735
   23          H(HETATM   23 2H3  HET A   1)           0.357383        0.6426     0.64262
   24          H(HETATM   24 1H9  HET A   1)           0.181819        0.8182     0.81818
   25          H(HETATM   25 2H9  HET A   1)           0.249925        0.7501     0.75007
   26          H(HETATM   26 2H6  HET A   1)           0.355133        0.6449     0.64487

          NET CHARGE ON RESIDUES

      Residue         Charge  Anion or
                              Cation?
      HET A   1       +0.000
 


 DIPOLE           X         Y         Z       TOTAL
 POINT-CHG.    -1.585     0.735     1.492     2.298
 HYBRID        -0.271     0.798     0.178     0.861
 SUM           -1.856     1.534     1.671     2.930


          ATOMIC ORBITAL ELECTRON POPULATIONS

                   Atom                  s        px        py        pz   
   C(HETATM    1  C1  HET A   1)   1.06911   1.03589   0.98936   1.13101
   C(HETATM    2  C2  HET A   1)   1.09357   1.01012   0.98849   0.95114
   C(HETATM    3  C3  HET A   1)   1.08278   1.05392   1.00385   1.04237
   C(HETATM    4  C4  HET A   1)   1.10036   0.95630   1.09322   0.95564
   C(HETATM    5  C5  HET A   1)   1.09932   0.88497   0.98199   1.00397
   C(HETATM    6  C6  HET A   1)   1.08724   0.98316   0.96397   0.88942
   C(HETATM    7  C7  HET A   1)   1.10567   0.69854   0.83593   0.70296
   O(HETATM    8  O1  HET A   1)   1.87899   1.59151   1.63524   1.43684
   O(HETATM    9  O2  HET A   1)   1.83899   1.58052   1.44679   1.66964
   O(HETATM   10  O3  HET A   1)   1.84855   1.76279   1.47481   1.43017
   O(HETATM   11  O4  HET A   1)   1.89116   1.40912   1.51028   1.52736
   C(HETATM   12  C8  HET A   1)   1.09738   0.90740   0.93398   0.87518
   C(HETATM   13  C9  HET A   1)   1.09088   1.10203   1.05733   1.17948
   C(HETATM   14  C10 HET A   1)   1.12916   0.70981   0.73426   0.84512
   O(HETATM   15  O5  HET A   1)   1.87708   1.44736   1.37374   1.77164
   O(HETATM   16  O6  HET A   1)   1.83972   1.67822   1.66251   1.36963
   H(HETATM   17 1H2  HET A   1)   0.82519
   H(HETATM   18 1H3  HET A   1)   0.83208
   H(HETATM   19  H4  HET A   1)   0.82793
   H(HETATM   20  H5  HET A   1)   0.80936
   H(HETATM   21 1H6  HET A   1)   0.80345
   H(HETATM   22 2H2  HET A   1)   0.63735
   H(HETATM   23 2H3  HET A   1)   0.64262
   H(HETATM   24 1H9  HET A   1)   0.81818
   H(HETATM   25 2H9  HET A   1)   0.75007
   H(HETATM   26 2H6  HET A   1)   0.64487
 *******************************************************************************
 ** Site#: 37037        For non-commercial use only           Version 21.158W **
 *******************************************************************************
 ** Cite this program as: MOPAC2016, Version: 21.158W, James J. P. Stewart,   **
 ** Stewart Computational Chemistry, web: HTTP://OpenMOPAC.net. Days left: 361**
 *******************************************************************************
 **                                                                           **
 **                                MOPAC2016                                  **
 **                                                                           **
 *******************************************************************************

                              PM7 CALCULATION RESULTS

 *******************************************************************************
 *  CALCULATION DONE:                                Fri Jun 11 09:02:09 2021  *
 *  IRC=N      - INTRINSIC REACTION COORDINATE -1 DEFINED
 *  OLDGEO     - PREVIOUS GEOMETRY TO BE USED
 *  T=         - A TIME OF 172800.0 SECONDS REQUESTED
 *  DUMP=N     - RESTART FILE WRITTEN EVERY 7200.0 SECONDS REQUESTED
 *  HTML       - WRITE HTML SCRIPT TO GENERATE ANIMATION USING JSMOL
 *             - TO DISPLAY IN PDB FORMAT, ADD "PDBOUT"
 *  X-PRIOR    - GEOMETRY CHANGES TAKE PRIORITY IN DRC
 *******************************************************************************
IRC=-1* oldgeo x-priority=0.2 HTML
 IRC for Isochorismic acid <=> Pyruvic acid plus Salicylic acid
 (Click on "Common" to orientate the system to see the reaction better.)
   ATOM                 CHEMICAL                   X               Y               Z
  NUMBER                 SYMBOL               (ANGSTROMS)     (ANGSTROMS)     (ANGSTROMS)
 
     1       C(HETATM    1  C1  HET A   1)    0.52963312  *  -0.17547679  *   0.12415721  *
     2       C(HETATM    2  C2  HET A   1)   -0.28627967  *  -0.92799575  *   0.91511312  *
     3       C(HETATM    3  C3  HET A   1)   -0.07147994  *  -2.33795504  *   1.04139972  *
     4       C(HETATM    4  C4  HET A   1)    0.93867194  *  -2.95289383  *   0.37810711  *
     5       C(HETATM    5  C5  HET A   1)    1.93688176  *  -2.19655398  *  -0.38149436  *
     6       C(HETATM    6  C6  HET A   1)    1.73329817  *  -0.74959192  *  -0.45871617  *
     7       C(HETATM    7  C7  HET A   1)    0.24969446  *   1.23223531  *  -0.16488251  *
     8       O(HETATM    8  O1  HET A   1)    0.82116565  *   1.94187187  *  -0.96537875  *
     9       O(HETATM    9  O2  HET A   1)   -0.77459143  *   1.72582215  *   0.56949645  *
    10       O(HETATM   10  O3  HET A   1)    2.22577752  *  -0.24996307  *  -1.64931133  *
    11       O(HETATM   11  O4  HET A   1)    3.25697272  *  -2.59840897  *   0.45441339  *
    12       C(HETATM   12  C8  HET A   1)    3.63512203  *  -1.77147023  *   1.37419846  *
    13       C(HETATM   13  C9  HET A   1)    3.96741046  *  -0.46236359  *   1.04758863  *
    14       C(HETATM   14  C10 HET A   1)    3.47480302  *  -2.25660617  *   2.77438615  *
    15       O(HETATM   15  O5  HET A   1)    2.75494599  *  -3.12314533  *   3.19162868  *
    16       O(HETATM   16  O6  HET A   1)    4.29779045  *  -1.56588662  *   3.60680322  *
    17       H(HETATM   17 1H2  HET A   1)   -1.14130358  *  -0.48494707  *   1.43415338  *
    18       H(HETATM   18 1H3  HET A   1)   -0.77134330  *  -2.90756229  *   1.65435449  *
    19       H(HETATM   19  H4  HET A   1)    1.06901782  *  -4.03663123  *   0.40448378  *
    20       H(HETATM   20  H5  HET A   1)    2.31914415  *  -2.66263007  *  -1.31611811  *
    21       H(HETATM   21 1H6  HET A   1)    4.46875869  *  -0.24251529  *   0.09927289  *
    22       H(HETATM   22 2H2  HET A   1)   -0.98306704  *   2.67442542  *   0.35867130  *
    23       H(HETATM   23 2H3  HET A   1)    1.90808181  *   0.68147500  *  -1.79777166  *
    24       H(HETATM   24 1H9  HET A   1)    4.21718358  *   0.25459704  *   1.82371031  *
    25       H(HETATM   25 2H9  HET A   1)    2.71200380  *  -0.15446104  *   0.44187447  *
    26       H(HETATM   26 2H6  HET A   1)    4.25155521  *  -1.87231287  *   4.54658222  *
 

 General Reference for PM7:
 "Optimization of Parameters for Semiempirical Methods VI: More Modifications to the 
 NDDO Approximations and Re-optimization of Parameters", J. J. P. Stewart, J. Mol. Mod., 1:32, 19 (2013)
 https://link.springer.com/article/10.1007/s00894-012-1667-x

           Empirical Formula: C10 H10 O6  =    26 atoms



      MOLECULAR POINT GROUP   :   C1  


      RHF CALCULATION, NO. OF DOUBLY OCCUPIED LEVELS = 43



          HEAT OF FORMATION =    -177.193790 KCALS/MOLE


          GRADIENT NORM =   1.06530


          TIME FOR SCF CALCULATION =    0.02

          TIME FOR DERIVATIVES     =    0.00

          MOLECULAR WEIGHT =  226.19


          ESTIMATED TIME TO COMPLETE CALCULATION =        2.44 SECONDS

    FOR POINT-GROUP C1   THERE ARE   1 UNIQUE SYMMETRY FUNCTIONS.

 STEP:   1 TIME =     0.03 SECS, INTEGRAL =      0.03 TIME LEFT: 172799.95
 STEP:   2 TIME =     0.03 SECS, INTEGRAL =      0.06 TIME LEFT: 172799.92
 STEP:   3 TIME =     0.03 SECS, INTEGRAL =      0.09 TIME LEFT: 172799.89
 STEP:   4 TIME =     0.02 SECS, INTEGRAL =      0.11 TIME LEFT: 172799.87
 STEP:   5 TIME =     0.03 SECS, INTEGRAL =      0.14 TIME LEFT: 172799.84
 STEP:   6 TIME =     0.03 SECS, INTEGRAL =      0.17 TIME LEFT: 172799.81
 STEP:   7 TIME =     0.02 SECS, INTEGRAL =      0.19 TIME LEFT: 172799.79
 STEP:   8 TIME =     0.02 SECS, INTEGRAL =      0.21 TIME LEFT: 172799.77
 STEP:   9 TIME =     0.03 SECS, INTEGRAL =      0.24 TIME LEFT: 172799.74
 STEP:  10 TIME =     0.03 SECS, INTEGRAL =      0.27 TIME LEFT: 172799.72
 STEP:  11 TIME =     0.02 SECS, INTEGRAL =      0.28 TIME LEFT: 172799.70
 STEP:  12 TIME =     0.04 SECS, INTEGRAL =      0.32 TIME LEFT: 172799.67
 STEP:  13 TIME =     0.02 SECS, INTEGRAL =      0.33 TIME LEFT: 172799.65
 STEP:  14 TIME =     0.03 SECS, INTEGRAL =      0.37 TIME LEFT: 172799.62
 STEP:  15 TIME =     0.03 SECS, INTEGRAL =      0.39 TIME LEFT: 172799.59
 STEP:  16 TIME =     0.03 SECS, INTEGRAL =      0.43 TIME LEFT: 172799.56
 STEP:  17 TIME =     0.02 SECS, INTEGRAL =      0.45 TIME LEFT: 172799.54
 STEP:  18 TIME =     0.03 SECS, INTEGRAL =      0.48 TIME LEFT: 172799.50
 STEP:  19 TIME =     0.02 SECS, INTEGRAL =      0.50 TIME LEFT: 172799.48
 STEP:  20 TIME =     0.02 SECS, INTEGRAL =      0.52 TIME LEFT: 172799.46
 STEP:  21 TIME =     0.02 SECS, INTEGRAL =      0.54 TIME LEFT: 172799.44
 STEP:  22 TIME =     0.02 SECS, INTEGRAL =      0.56 TIME LEFT: 172799.42
 STEP:  23 TIME =     0.02 SECS, INTEGRAL =      0.58 TIME LEFT: 172799.40
 STEP:  24 TIME =     0.02 SECS, INTEGRAL =      0.61 TIME LEFT: 172799.38
 STEP:  25 TIME =     0.03 SECS, INTEGRAL =      0.63 TIME LEFT: 172799.35
 STEP:  26 TIME =     0.02 SECS, INTEGRAL =      0.65 TIME LEFT: 172799.33
 STEP:  27 TIME =     0.02 SECS, INTEGRAL =      0.67 TIME LEFT: 172799.31
 STEP:  28 TIME =     0.02 SECS, INTEGRAL =      0.69 TIME LEFT: 172799.29
 STEP:  29 TIME =     0.03 SECS, INTEGRAL =      0.72 TIME LEFT: 172799.26
 STEP:  30 TIME =     0.02 SECS, INTEGRAL =      0.74 TIME LEFT: 172799.24
 STEP:  31 TIME =     0.03 SECS, INTEGRAL =      0.77 TIME LEFT: 172799.21
 STEP:  32 TIME =     0.03 SECS, INTEGRAL =      0.80 TIME LEFT: 172799.19
 STEP:  33 TIME =     0.02 SECS, INTEGRAL =      0.82 TIME LEFT: 172799.16
 STEP:  34 TIME =     0.03 SECS, INTEGRAL =      0.85 TIME LEFT: 172799.13
 STEP:  35 TIME =     0.03 SECS, INTEGRAL =      0.88 TIME LEFT: 172799.11
 STEP:  36 TIME =     0.03 SECS, INTEGRAL =      0.91 TIME LEFT: 172799.08
 STEP:  37 TIME =     0.03 SECS, INTEGRAL =      0.94 TIME LEFT: 172799.05
 STEP:  38 TIME =     0.03 SECS, INTEGRAL =      0.97 TIME LEFT: 172799.02
 STEP:  39 TIME =     0.02 SECS, INTEGRAL =      0.99 TIME LEFT: 172799.00
 STEP:  40 TIME =     0.03 SECS, INTEGRAL =      1.02 TIME LEFT: 172798.97
 STEP:  41 TIME =     0.02 SECS, INTEGRAL =      1.04 TIME LEFT: 172798.95
 STEP:  42 TIME =     0.03 SECS, INTEGRAL =      1.07 TIME LEFT: 172798.92
 STEP:  43 TIME =     0.03 SECS, INTEGRAL =      1.10 TIME LEFT: 172798.89
 STEP:  44 TIME =     0.03 SECS, INTEGRAL =      1.13 TIME LEFT: 172798.86
 STEP:  45 TIME =     0.02 SECS, INTEGRAL =      1.15 TIME LEFT: 172798.84
 STEP:  46 TIME =     0.03 SECS, INTEGRAL =      1.17 TIME LEFT: 172798.81
 STEP:  47 TIME =     0.03 SECS, INTEGRAL =      1.21 TIME LEFT: 172798.78
 STEP:  48 TIME =     0.02 SECS, INTEGRAL =      1.23 TIME LEFT: 172798.76
 STEP:  49 TIME =     0.03 SECS, INTEGRAL =      1.25 TIME LEFT: 172798.73
 STEP:  50 TIME =     0.02 SECS, INTEGRAL =      1.28 TIME LEFT: 172798.71
 STEP:  51 TIME =     0.03 SECS, INTEGRAL =      1.31 TIME LEFT: 172798.68
 STEP:  52 TIME =     0.02 SECS, INTEGRAL =      1.33 TIME LEFT: 172798.66
 STEP:  53 TIME =     0.02 SECS, INTEGRAL =      1.35 TIME LEFT: 172798.63
 STEP:  54 TIME =     0.02 SECS, INTEGRAL =      1.37 TIME LEFT: 172798.61
 STEP:  55 TIME =     0.02 SECS, INTEGRAL =      1.39 TIME LEFT: 172798.59
 STEP:  56 TIME =     0.02 SECS, INTEGRAL =      1.41 TIME LEFT: 172798.57
 STEP:  57 TIME =     0.02 SECS, INTEGRAL =      1.43 TIME LEFT: 172798.55
 STEP:  58 TIME =     0.02 SECS, INTEGRAL =      1.45 TIME LEFT: 172798.54
 STEP:  59 TIME =     0.02 SECS, INTEGRAL =      1.47 TIME LEFT: 172798.52
 STEP:  60 TIME =     0.02 SECS, INTEGRAL =      1.49 TIME LEFT: 172798.50
 STEP:  61 TIME =     0.02 SECS, INTEGRAL =      1.51 TIME LEFT: 172798.47
 STEP:  62 TIME =     0.02 SECS, INTEGRAL =      1.53 TIME LEFT: 172798.45
 STEP:  63 TIME =     0.03 SECS, INTEGRAL =      1.56 TIME LEFT: 172798.42
 STEP:  64 TIME =     0.03 SECS, INTEGRAL =      1.59 TIME LEFT: 172798.39
 STEP:  65 TIME =     0.02 SECS, INTEGRAL =      1.61 TIME LEFT: 172798.38
 STEP:  66 TIME =     0.03 SECS, INTEGRAL =      1.64 TIME LEFT: 172798.34
 STEP:  67 TIME =     0.02 SECS, INTEGRAL =      1.66 TIME LEFT: 172798.32
 STEP:  68 TIME =     0.02 SECS, INTEGRAL =      1.68 TIME LEFT: 172798.30
 STEP:  69 TIME =     0.02 SECS, INTEGRAL =      1.70 TIME LEFT: 172798.28
 STEP:  70 TIME =     0.02 SECS, INTEGRAL =      1.72 TIME LEFT: 172798.26
 STEP:  71 TIME =     0.02 SECS, INTEGRAL =      1.74 TIME LEFT: 172798.24
 STEP:  72 TIME =     0.03 SECS, INTEGRAL =      1.77 TIME LEFT: 172798.21
 STEP:  73 TIME =     0.03 SECS, INTEGRAL =      1.80 TIME LEFT: 172798.18
 STEP:  74 TIME =     0.03 SECS, INTEGRAL =      1.83 TIME LEFT: 172798.15
 STEP:  75 TIME =     0.03 SECS, INTEGRAL =      1.86 TIME LEFT: 172798.12
 STEP:  76 TIME =     0.03 SECS, INTEGRAL =      1.89 TIME LEFT: 172798.09
 STEP:  77 TIME =     0.03 SECS, INTEGRAL =      1.92 TIME LEFT: 172798.06
 STEP:  78 TIME =     0.02 SECS, INTEGRAL =      1.94 TIME LEFT: 172798.04
           INITIAL VELOCITY IN DRC (Angstroms/Femtosecond)
        -0.01541         0.01064         0.01238
         0.00661         0.00649         0.00138
        -0.00200        -0.00998         0.00244
        -0.01198         0.00371         0.00253
         0.00202        -0.02554        -0.02842
         0.01896         0.00901        -0.05424
         0.00257         0.00115         0.00061
        -0.00054         0.00051         0.00027
        -0.00060         0.00058         0.00001
         0.00478        -0.00180         0.01180
        -0.00275        -0.00143         0.02895
         0.01602         0.03377        -0.01064
        -0.00582        -0.03818        -0.03653
         0.00219         0.00031         0.00346
         0.00036        -0.00015         0.00032
        -0.00042        -0.00039         0.00050
        -0.00528         0.00102        -0.00289
        -0.00214         0.00202         0.00031
        -0.00493        -0.00218        -0.00481
        -0.00339         0.01157         0.03189
        -0.02653         0.06937         0.06627
        -0.00314         0.00165        -0.00069
        -0.00033        -0.00751         0.01139
        -0.00330         0.02142         0.01737
        -0.11864         0.04864         0.49003
        -0.00217        -0.00086         0.00212

 GEOMETRY PRIORITY, STEP = 0.2000 ANGSTROMS



     POINT   POTENTIAL  +  ENERGY LOST   =   TOTAL      ERROR    REF%   MOVEMENT
       1    -177.19377      0.00000       -177.19377   0.00000     1   %  0.0000
       1    -179.45209      0.00000       -179.45209  -2.16254     2   %  0.2111
      24    -183.22078      3.37618       -179.84460  -0.41086     3   %  0.3986
      71    -186.90246      7.06733       -179.83513  -0.40138     4   %  0.5944
     114    -189.95538     10.12859       -179.82680  -0.39305     5   %  0.7747
     151    -192.45037     12.63077       -179.81960  -0.38585     6   %  0.9534
     183    -194.47609     14.66279       -179.81330  -0.37956     7   %  1.1324
     210    -196.14720     16.33917       -179.80802  -0.37428     8   %  1.3064
     232    -197.54394     17.74013       -179.80381  -0.37006     9   %  1.4680
     249    -198.74748     18.94712       -179.80036  -0.36661    10   %  1.6172
     265    -199.81957     20.02222       -179.79735  -0.36361    11   %  1.7592
     279    -200.79385     20.99922       -179.79463  -0.36089    12   %  1.8983
     291    -201.68866     21.89654       -179.79212  -0.35837    13   %  2.0366
     303    -202.51500     22.72523       -179.78977  -0.35603    14   %  2.1758
     315    -203.28057     23.49300       -179.78757  -0.35383    15   %  2.3172
     325    -203.99131     24.20582       -179.78550  -0.35175    16   %  2.4620
     335    -204.65211     24.86859       -179.78352  -0.34978    17   %  2.6112
     345    -205.26716     25.48551       -179.78165  -0.34790    18   %  2.7656
     354    -205.84023     26.06038       -179.77985  -0.34610    19   %  2.9248
     363    -206.37499     26.59687       -179.77811  -0.34437    20   %  3.0885
     372    -206.87484     27.09840       -179.77643  -0.34269    21   %  3.2556
     380    -207.34277     27.56798       -179.77479  -0.34105    22   %  3.4257
     388    -207.78140     28.00820       -179.77319  -0.33945    23   %  3.5981
     396    -208.19293     28.42132       -179.77162  -0.33787    24   %  3.7726
     404    -208.57926     28.80920       -179.77007  -0.33632    25   %  3.9490
     412    -208.94201     29.17347       -179.76854  -0.33479    26   %  4.1272
     419    -209.28272     29.51570       -179.76702  -0.33328    27   %  4.3072
     429    -209.60154     29.83688       -179.76465  -0.33091    28   %  4.4879
     441    -209.90272     30.14038       -179.76235  -0.32860    29   %  4.6718
     451    -210.18426     30.42416       -179.76009  -0.32635    30   %  4.8562
     462    -210.44869     30.69104       -179.75766  -0.32391    31   %  5.0422
     473    -210.69630     30.94177       -179.75453  -0.32079    32   %  5.2287
     485    -210.92910     31.17814       -179.75097  -0.31722    33   %  5.4176
     501    -211.14973     31.40411       -179.74561  -0.31187    34   %  5.6063
     514    -211.35560     31.61453       -179.74107  -0.30732    35   %  5.7948
     527    -211.54816     31.81226       -179.73589  -0.30215    36   %  5.9819
     545    -211.72784     32.00481       -179.72303  -0.28929    37   %  6.1656
     564    -211.89823     32.18340       -179.71483  -0.28108    38   %  6.3488
     580    -212.05390     32.34817       -179.70573  -0.27198    39   %  6.5236
     603    -212.20448     32.51775       -179.68673  -0.25298    40   %  6.6997
     628    -212.34221     32.68148       -179.66073  -0.22699    41   %  6.8668
     647    -212.47229     32.82795       -179.64434  -0.21060    42   %  7.0294
     675    -212.59304     32.98466       -179.60838  -0.17463    43   %  7.1880
     703    -212.70719     33.13599       -179.57120  -0.13746    44   %  7.3425
     734    -212.81285     33.28019       -179.53265  -0.09891    45   %  7.4914
     767    -212.90957     33.43292       -179.47665  -0.04291    46   %  7.6338
     800    -212.99767     33.56395       -179.43371   0.00003    47   %  7.7688
     843    -213.07520     33.72136       -179.35384   0.07991    48   %  7.8953
     889    -213.14562     33.85042       -179.29520   0.13855    49   %  8.0160
     938    -213.20547     33.99414       -179.21133   0.22242    50   %  8.1252
     998    -213.26477     34.13378       -179.13099   0.30275    51   %  8.2425
    1068    -213.31476     34.29026       -179.02450   0.40924    52   %  8.3497
    1134    -213.35847     34.42767       -178.93081   0.50294    53   %  8.4552
    1221    -213.39916     34.58003       -178.81913   0.61462    54   %  8.5638
    1309    -213.43091     34.73869       -178.69222   0.74152    55   %  8.6638
    1419    -213.46129     34.95487       -178.50642   0.92732    56   %  8.7737
    1545    -213.48299     35.18005       -178.30294   1.13080    57   %  8.8770
    1702    -213.50556     35.49013       -178.01543   1.41831    58   %  8.9842
    1906    -213.52152     35.80611       -177.71541   1.71834    59   %  9.0888


 IRC CALCULATION COMPLETE 
           INITIAL VELOCITY IN DRC (Angstroms/Femtosecond)
         0.01541        -0.01064        -0.01238
        -0.00661        -0.00649        -0.00138
         0.00200         0.00998        -0.00244
         0.01198        -0.00371        -0.00253
        -0.00202         0.02554         0.02842
        -0.01896        -0.00901         0.05424
        -0.00257        -0.00115        -0.00061
         0.00054        -0.00051        -0.00027
         0.00060        -0.00058        -0.00001
        -0.00478         0.00180        -0.01180
         0.00275         0.00143        -0.02895
        -0.01602        -0.03377         0.01064
         0.00582         0.03818         0.03653
        -0.00219        -0.00031        -0.00346
        -0.00036         0.00015        -0.00032
         0.00042         0.00039        -0.00050
         0.00528        -0.00102         0.00289
         0.00214        -0.00202        -0.00031
         0.00493         0.00218         0.00481
         0.00339        -0.01157        -0.03189
         0.02653        -0.06937        -0.06627
         0.00314        -0.00165         0.00069
         0.00033         0.00751        -0.01139
         0.00330        -0.02142        -0.01737
         0.11864        -0.04864        -0.49003
         0.00217         0.00086        -0.00212

 GEOMETRY PRIORITY, STEP = 0.2000 ANGSTROMS



     POINT   POTENTIAL  +  ENERGY LOST   =   TOTAL      ERROR    REF%   MOVEMENT
       1    -177.19379      0.00000       -177.19379   0.00000     1   %  0.0000
       1    -179.63141      0.00000       -179.63141  -2.13430     2   %  0.2106
      24    -184.09797      4.05823       -180.03974  -0.46998     3   %  0.3906
      57    -189.62172      9.58785       -180.03386  -0.46410     4   %  0.5973
      95    -194.48323     14.45684       -180.02639  -0.45662     5   %  0.7930
     131    -198.91240     18.89315       -180.01925  -0.44949     6   %  0.9862
     166    -203.05756     23.04523       -180.01233  -0.44257     7   %  1.1783
     200    -207.08152     27.07596       -180.00556  -0.43580     8   %  1.3694
     234    -211.11645     31.11762       -179.99883  -0.42907     9   %  1.5573
     269    -215.19891     35.20695       -179.99196  -0.42220    10   %  1.7391
     305    -219.26373     39.27903       -179.98470  -0.41494    11   %  1.9142
     344    -223.16523     43.18821       -179.97702  -0.40726    12   %  2.0847
     383    -226.69912     46.72988       -179.96924  -0.39947    13   %  2.2494
     420    -229.74506     49.78332       -179.96173  -0.39197    14   %  2.4064
     456    -232.33404     52.37940       -179.95465  -0.38489    15   %  2.5577
     490    -234.52473     54.57671       -179.94802  -0.37826    16   %  2.7055
     521    -236.37002     56.42812       -179.94190  -0.37213    17   %  2.8513
     549    -237.91015     57.97384       -179.93631  -0.36655    18   %  2.9951
     575    -239.19396     59.26272       -179.93124  -0.36148    19   %  3.1375
     598    -240.27066     60.34402       -179.92664  -0.35688    20   %  3.2792
     619    -241.18078     61.25834       -179.92244  -0.35268    21   %  3.4218
     639    -241.95601     62.03743       -179.91858  -0.34882    22   %  3.5672
     657    -242.62060     62.70559       -179.91501  -0.34525    23   %  3.7161
     674    -243.19336     63.28164       -179.91171  -0.34195    24   %  3.8673
     690    -243.68953     63.78089       -179.90864  -0.33888    25   %  4.0195
     705    -244.12200     64.21624       -179.90576  -0.33600    26   %  4.1715
     719    -244.50137     64.59833       -179.90303  -0.33327    27   %  4.3214
     732    -244.83566     64.93523       -179.90043  -0.33067    28   %  4.4670
     745    -245.13195     65.23400       -179.89795  -0.32819    29   %  4.6070
     757    -245.39675     65.50120       -179.89556  -0.32579    30   %  4.7404
     772    -245.63584     65.74355       -179.89229  -0.32253    31   %  4.8675
     789    -245.85215     65.96405       -179.88810  -0.31834    32   %  4.9897
     805    -246.04737     66.16299       -179.88438  -0.31462    33   %  5.1104
     827    -246.22648     66.34860       -179.87789  -0.30812    34   %  5.2346
     846    -246.39030     66.52003       -179.87027  -0.30051    35   %  5.3629
     865    -246.54025     66.67557       -179.86468  -0.29492    36   %  5.4932
     890    -246.67742     66.82437       -179.85305  -0.28329    37   %  5.6239
     917    -246.80102     66.96355       -179.83747  -0.26771    38   %  5.7515
     949    -246.92154     67.10949       -179.81205  -0.24229    39   %  5.8853
     983    -247.03057     67.23962       -179.79095  -0.22119    40   %  6.0157
    1022    -247.13075     67.37157       -179.75919  -0.18942    41   %  6.1443
    1055    -247.22384     67.49239       -179.73145  -0.16169    42   %  6.2707
    1098    -247.30505     67.61721       -179.68784  -0.11808    43   %  6.3902
    1150    -247.38923     67.76247       -179.62676  -0.05700    44   %  6.5195
    1206    -247.46462     67.90532       -179.55930   0.01046    45   %  6.6407
    1267    -247.53560     68.05457       -179.48103   0.08873    46   %  6.7588
    1340    -247.60182     68.23445       -179.36737   0.20239    47   %  6.8716
    1420    -247.66359     68.39553       -179.26805   0.30171    48   %  6.9787
    1511    -247.72093     68.59310       -179.12782   0.44194    49   %  7.0802
    1611    -247.77556     68.81776       -178.95780   0.61196    50   %  7.1771
    1727    -247.82588     69.00420       -178.82168   0.74808    51   %  7.2705
    1855    -247.87178     69.19886       -178.67292   0.89684    52   %  7.3648
    1998    -247.91456     69.43466       -178.47990   1.08986    53   %  7.4539
    2158    -247.95422     69.69172       -178.26250   1.30726    54   %  7.5496
    2326    -247.99049     69.99470       -177.99579   1.57397    55   %  7.6492
    2525    -248.02387     70.27916       -177.74472   1.82504    56   %  7.7548
    2731    -248.05419     70.63645       -177.41774   2.15202    57   %  7.8675
    2969    -248.08091     71.00649       -177.07442   2.49534    58   %  7.9872
    3250    -248.10597     71.42599       -176.67998   2.88978    59   %  8.1135
    3560    -248.12717     71.93167       -176.19550   3.37426    60   %  8.2450
    3910    -248.14523     72.46388       -175.68135   3.88841    61   %  8.3805


 IRC CALCULATION COMPLETE 

 **********************
 *                    *
 * JOB ENDED NORMALLY *
 *                    *
 **********************



 TOTAL JOB TIME:           102.17 SECONDS

 == MOPAC DONE ==
