 *******************************************************************************
 ** Site#: 37037        For non-commercial use only           Version 21.158W **
 *******************************************************************************
 ** Cite this program as: MOPAC2016, Version: 21.158W, James J. P. Stewart,   **
 ** Stewart Computational Chemistry, web: HTTP://OpenMOPAC.net. Days left: 361**
 *******************************************************************************
 **                                                                           **
 **                                MOPAC2016                                  **
 **                                                                           **
 *******************************************************************************

                              PM7 CALCULATION RESULTS

 *******************************************************************************
 *  CALCULATION DONE:                                Fri Jun 11 08:58:20 2021  *
 *  T=         - A TIME OF 172800.0 SECONDS REQUESTED
 *  DUMP=N     - RESTART FILE WRITTEN EVERY 7200.0 SECONDS REQUESTED
 *  HTML       - WRITE HTML SCRIPT TO READ PDB FILE USING JSMOL
 *******************************************************************************
 html
  Pyruvic acid plus salicylic acid

   ATOM                 CHEMICAL                   X               Y               Z
  NUMBER                 SYMBOL               (ANGSTROMS)     (ANGSTROMS)     (ANGSTROMS)
 
     1       C(HETATM    1  C1  HET A   1)   -0.03385820  *   0.02879511  *  -0.02168822  *
     2       C(HETATM    2  C2  HET A   1)   -1.19719067  *  -0.75804120  *  -0.04037710  *
     3       C(HETATM    3  C3  HET A   1)   -1.16304759  *  -2.06662476  *   0.40915793  *
     4       C(HETATM    4  C4  HET A   1)    0.03540820  *  -2.61784779  *   0.89217182  *
     5       C(HETATM    5  C5  HET A   1)    1.19767981  *  -1.86916299  *   0.92512730  *
     6       C(HETATM    6  C6  HET A   1)    1.15658290  *  -0.54264125  *   0.46386388  *
     7       C(HETATM    7  C7  HET A   1)   -0.03448570  *   1.40465031  *  -0.48854830  *
     8       O(HETATM    8  O1  HET A   1)    0.91613858  *   2.16628911  *  -0.50699002  *
     9       O(HETATM    9  O2  HET A   1)   -1.23977421  *   1.82688190  *  -0.93437011  *
    10       O(HETATM   10  O3  HET A   1)    2.31504783  *   0.13461289  *   0.51665112  *
    11       O(HETATM   11  O4  HET A   1)    4.01743756  *  -3.23708865  *   2.29772504  *
    12       C(HETATM   12  C8  HET A   1)    4.96580257  *  -2.51493980  *   2.42304886  *
    13       C(HETATM   13  C9  HET A   1)    5.05510978  *  -1.10056192  *   1.99165503  *
    14       C(HETATM   14  C10 HET A   1)    6.24578404  *  -3.06491239  *   3.05499759  *
    15       O(HETATM   15  O5  HET A   1)    7.14980269  *  -3.62844673  *   2.50708737  *
    16       O(HETATM   16  O6  HET A   1)    6.24510096  *  -2.79554516  *   4.37866962  *
    17       H(HETATM   17 1H2  HET A   1)   -2.12920566  *  -0.32422305  *  -0.41526152  *
    18       H(HETATM   18 1H3  HET A   1)   -2.06379847  *  -2.67521151  *   0.39171601  *
    19       H(HETATM   19  H4  HET A   1)    0.04679994  *  -3.65177378  *   1.24529157  *
    20       H(HETATM   20  H5  HET A   1)    2.13527200  *  -2.28526240  *   1.29894582  *
    21       H(HETATM   21 1H6  HET A   1)    5.25522416  *  -0.42459671  *   2.83971433  *
    22       H(HETATM   22 2H2  HET A   1)   -1.22243662  *   2.76812100  *  -1.25346950  *
    23       H(HETATM   23 2H3  HET A   1)    2.20877270  *   1.08004406  *   0.16810108  *
    24       H(HETATM   24 1H9  HET A   1)    5.85447902  *  -0.94004708  *   1.25034988  *
    25       H(HETATM   25 2H9  HET A   1)    4.11394746  *  -0.75308843  *   1.52160867  *
    26       H(HETATM   26 2H6  HET A   1)    7.03668726  *  -3.14577854  *   4.86194458  *
 

 General Reference for PM7:
 "Optimization of Parameters for Semiempirical Methods VI: More Modifications to the 
 NDDO Approximations and Re-optimization of Parameters", J. J. P. Stewart, J. Mol. Mod., 1:32, 19 (2013)
 https://link.springer.com/article/10.1007/s00894-012-1667-x

           Empirical Formula: C10 H10 O6  =    26 atoms



      MOLECULAR POINT GROUP   :   C1  


      RHF CALCULATION, NO. OF DOUBLY OCCUPIED LEVELS = 43


          Geometry optimization using EF

     GRADIENT =  0.92922 IS LESS THAN CUTOFF =  1.00000



 -------------------------------------------------------------------------------
 html
  Pyruvic acid plus salicylic acid



     GRADIENTS WERE INITIALLY ACCEPTABLY SMALL                
     SCF FIELD WAS ACHIEVED                                   


                              PM7 CALCULATION
                                                       MOPAC2016 (Version: 21.158W)
                                                       Fri Jun 11 08:58:20 2021
                                                       No. of days remaining = 361




          FINAL HEAT OF FORMATION =       -247.18202 KCAL/MOL =   -1034.20958 KJ/MOL


          TOTAL ENERGY            =      -3135.83426 EV
          ELECTRONIC ENERGY       =     -16388.32375 EV  POINT GROUP:     C1  
          CORE-CORE REPULSION     =      13252.48949 EV
          COSMO AREA              =        252.94 SQUARE ANGSTROMS
          COSMO VOLUME            =        255.57 CUBIC ANGSTROMS

          GRADIENT NORM           =          0.92922 = 0.18223 PER ATOM
          IONIZATION POTENTIAL    =          9.659627 EV
          HOMO LUMO ENERGIES (EV) =         -9.660 -0.911
          NO. OF FILLED LEVELS    =         43
          MOLECULAR WEIGHT        =        226.1854

          MOLECULAR DIMENSIONS (Angstroms)

            Atom       Atom       Distance
            H    26    H    22    11.85688
            H    24    H    18     6.36461
            O    15    H    21     2.41821


          SCF CALCULATIONS        =          1
 
          WALL-CLOCK TIME         =          0.031 SECONDS
          COMPUTATION TIME        =          0.125 SECONDS




   ATOM                 CHEMICAL                   X               Y               Z
  NUMBER                 SYMBOL               (ANGSTROMS)     (ANGSTROMS)     (ANGSTROMS)
 
     1       C(HETATM    1  C1  HET A   1)   -0.03385820  *   0.02879511  *  -0.02168822  *
     2       C(HETATM    2  C2  HET A   1)   -1.19719067  *  -0.75804120  *  -0.04037710  *
     3       C(HETATM    3  C3  HET A   1)   -1.16304759  *  -2.06662476  *   0.40915793  *
     4       C(HETATM    4  C4  HET A   1)    0.03540820  *  -2.61784779  *   0.89217182  *
     5       C(HETATM    5  C5  HET A   1)    1.19767981  *  -1.86916299  *   0.92512730  *
     6       C(HETATM    6  C6  HET A   1)    1.15658290  *  -0.54264125  *   0.46386388  *
     7       C(HETATM    7  C7  HET A   1)   -0.03448570  *   1.40465031  *  -0.48854830  *
     8       O(HETATM    8  O1  HET A   1)    0.91613858  *   2.16628911  *  -0.50699002  *
     9       O(HETATM    9  O2  HET A   1)   -1.23977421  *   1.82688190  *  -0.93437011  *
    10       O(HETATM   10  O3  HET A   1)    2.31504783  *   0.13461289  *   0.51665112  *
    11       O(HETATM   11  O4  HET A   1)    4.01743756  *  -3.23708865  *   2.29772504  *
    12       C(HETATM   12  C8  HET A   1)    4.96580257  *  -2.51493980  *   2.42304886  *
    13       C(HETATM   13  C9  HET A   1)    5.05510978  *  -1.10056192  *   1.99165503  *
    14       C(HETATM   14  C10 HET A   1)    6.24578404  *  -3.06491239  *   3.05499759  *
    15       O(HETATM   15  O5  HET A   1)    7.14980269  *  -3.62844673  *   2.50708737  *
    16       O(HETATM   16  O6  HET A   1)    6.24510096  *  -2.79554516  *   4.37866962  *
    17       H(HETATM   17 1H2  HET A   1)   -2.12920566  *  -0.32422305  *  -0.41526152  *
    18       H(HETATM   18 1H3  HET A   1)   -2.06379847  *  -2.67521151  *   0.39171601  *
    19       H(HETATM   19  H4  HET A   1)    0.04679994  *  -3.65177378  *   1.24529157  *
    20       H(HETATM   20  H5  HET A   1)    2.13527200  *  -2.28526240  *   1.29894582  *
    21       H(HETATM   21 1H6  HET A   1)    5.25522416  *  -0.42459671  *   2.83971433  *
    22       H(HETATM   22 2H2  HET A   1)   -1.22243662  *   2.76812100  *  -1.25346950  *
    23       H(HETATM   23 2H3  HET A   1)    2.20877270  *   1.08004406  *   0.16810108  *
    24       H(HETATM   24 1H9  HET A   1)    5.85447902  *  -0.94004708  *   1.25034988  *
    25       H(HETATM   25 2H9  HET A   1)    4.11394746  *  -0.75308843  *   1.52160867  *
    26       H(HETATM   26 2H6  HET A   1)    7.03668726  *  -3.14577854  *   4.86194458  *

                             CARTESIAN COORDINATES

   1    C       -0.033858200     0.028795110    -0.021688220
   2    C       -1.197190670    -0.758041200    -0.040377100
   3    C       -1.163047590    -2.066624760     0.409157930
   4    C        0.035408200    -2.617847790     0.892171820
   5    C        1.197679810    -1.869162990     0.925127300
   6    C        1.156582900    -0.542641250     0.463863880
   7    C       -0.034485700     1.404650310    -0.488548300
   8    O        0.916138580     2.166289110    -0.506990020
   9    O       -1.239774210     1.826881900    -0.934370110
  10    O        2.315047830     0.134612890     0.516651120
  11    O        4.017437560    -3.237088650     2.297725040
  12    C        4.965802570    -2.514939800     2.423048860
  13    C        5.055109780    -1.100561920     1.991655030
  14    C        6.245784040    -3.064912390     3.054997590
  15    O        7.149802690    -3.628446730     2.507087370
  16    O        6.245100960    -2.795545160     4.378669620
  17    H       -2.129205660    -0.324223050    -0.415261520
  18    H       -2.063798470    -2.675211510     0.391716010
  19    H        0.046799940    -3.651773780     1.245291570
  20    H        2.135272000    -2.285262400     1.298945820
  21    H        5.255224160    -0.424596710     2.839714330
  22    H       -1.222436620     2.768121000    -1.253469500
  23    H        2.208772700     1.080044060     0.168101080
  24    H        5.854479020    -0.940047080     1.250349880
  25    H        4.113947460    -0.753088430     1.521608670
  26    H        7.036687260    -3.145778540     4.861944580


           Empirical Formula: C10 H10 O6  =    26 atoms



      MOLECULAR POINT GROUP   :   C1  


                  EIGENVALUES  
 -32.26561 -32.09763 -31.79076 -31.27515 -30.66315 -30.49412 -29.90688 -27.53379
 -27.08961 -25.91060 -23.87662 -23.44939 -21.60469 -20.87263 -19.75951 -18.34446
 -18.01307 -17.91309 -17.37442 -17.20798 -16.44430 -16.29980 -16.12198 -15.80621
 -15.70046 -15.10438 -14.88911 -14.77159 -14.72426 -14.26845 -14.09362 -13.65563
 -13.53252 -13.11329 -12.86433 -12.52896 -12.52164 -12.51420 -12.24752 -11.53652
 -10.61026 -10.60021  -9.65963  -0.91062  -0.12954  -0.08344   0.40976   0.85984
   1.35781   1.64888   2.08544   2.09748   2.75741   2.92389   3.17032   3.62813
   4.03435   4.13380   4.19496   4.24088   4.30736   4.47834   4.67725   4.78989
   4.99329   5.07428   5.09837   5.23693   5.42961   5.56202   5.64069   5.87669
   6.07039   6.17560


              NET ATOMIC CHARGES AND DIPOLE CONTRIBUTIONS

  ATOM NO.                 TYPE                        CHARGE      No. of ELECS.   s-Pop       p-Pop       
    1          C(HETATM    1  C1  HET A   1)          -0.339899        4.3399     1.05421     3.28569
    2          C(HETATM    2  C2  HET A   1)           0.007829        3.9922     1.09022     2.90195
    3          C(HETATM    3  C3  HET A   1)          -0.260444        4.2604     1.07598     3.18447
    4          C(HETATM    4  C4  HET A   1)          -0.015785        4.0158     1.09337     2.92241
    5          C(HETATM    5  C5  HET A   1)          -0.285761        4.2858     1.07974     3.20602
    6          C(HETATM    6  C6  HET A   1)           0.381293        3.6187     1.08421     2.53450
    7          C(HETATM    7  C7  HET A   1)           0.681770        3.3182     1.09977     2.21846
    8          O(HETATM    8  O1  HET A   1)          -0.577399        6.5774     1.87973     4.69767
    9          O(HETATM    9  O2  HET A   1)          -0.529592        6.5296     1.83904     4.69055
   10          O(HETATM   10  O3  HET A   1)          -0.493855        6.4939     1.83951     4.65434
   11          O(HETATM   11  O4  HET A   1)          -0.381011        6.3810     1.87768     4.50333
   12          C(HETATM   12  C8  HET A   1)           0.451806        3.5482     1.12712     2.42107
   13          C(HETATM   13  C9  HET A   1)          -0.545496        4.5455     1.06284     3.48266
   14          C(HETATM   14  C10 HET A   1)           0.526680        3.4733     1.16106     2.31226
   15          O(HETATM   15  O5  HET A   1)          -0.461263        6.4613     1.87602     4.58524
   16          O(HETATM   16  O6  HET A   1)          -0.542864        6.5429     1.83758     4.70528
   17          H(HETATM   17 1H2  HET A   1)           0.168798        0.8312     0.83120
   18          H(HETATM   18 1H3  HET A   1)           0.162761        0.8372     0.83724
   19          H(HETATM   19  H4  HET A   1)           0.156499        0.8435     0.84350
   20          H(HETATM   20  H5  HET A   1)           0.201238        0.7988     0.79876
   21          H(HETATM   21 1H6  HET A   1)           0.191737        0.8083     0.80826
   22          H(HETATM   22 2H2  HET A   1)           0.361325        0.6387     0.63868
   23          H(HETATM   23 2H3  HET A   1)           0.380607        0.6194     0.61939
   24          H(HETATM   24 1H9  HET A   1)           0.190473        0.8095     0.80953
   25          H(HETATM   25 2H9  HET A   1)           0.212139        0.7879     0.78786
   26          H(HETATM   26 2H6  HET A   1)           0.358416        0.6416     0.64158

          NET CHARGE ON RESIDUES

      Residue         Charge  Anion or
                              Cation?
      HET A   1       +0.000
 


 DIPOLE           X         Y         Z       TOTAL
 POINT-CHG.    -2.022     0.867     0.556     2.269
 HYBRID         0.680     0.792     0.005     1.044
 SUM           -1.343     1.659     0.561     2.207


          ATOMIC ORBITAL ELECTRON POPULATIONS

                   Atom                  s        px        py        pz   
   C(HETATM    1  C1  HET A   1)   1.05421   1.03825   1.01135   1.23610
   C(HETATM    2  C2  HET A   1)   1.09022   1.02855   0.97470   0.89870
   C(HETATM    3  C3  HET A   1)   1.07598   1.06676   1.03023   1.08748
   C(HETATM    4  C4  HET A   1)   1.09337   0.96555   1.05807   0.89879
   C(HETATM    5  C5  HET A   1)   1.07974   1.09421   0.99778   1.11404
   C(HETATM    6  C6  HET A   1)   1.08421   0.80063   0.90212   0.83175
   C(HETATM    7  C7  HET A   1)   1.09977   0.72392   0.82876   0.66578
   O(HETATM    8  O1  HET A   1)   1.87973   1.47973   1.60616   1.61178
   O(HETATM    9  O2  HET A   1)   1.83904   1.45330   1.45934   1.77791
   O(HETATM   10  O3  HET A   1)   1.83951   1.39883   1.44236   1.81315
   O(HETATM   11  O4  HET A   1)   1.87768   1.42175   1.61127   1.47031
   C(HETATM   12  C8  HET A   1)   1.12712   0.82642   0.87890   0.71575
   C(HETATM   13  C9  HET A   1)   1.06284   1.23537   1.05290   1.19439
   C(HETATM   14  C10 HET A   1)   1.16106   0.84988   0.70857   0.75381
   O(HETATM   15  O5  HET A   1)   1.87602   1.44266   1.43682   1.70576
   O(HETATM   16  O6  HET A   1)   1.83758   1.57413   1.76893   1.36223
   H(HETATM   17 1H2  HET A   1)   0.83120
   H(HETATM   18 1H3  HET A   1)   0.83724
   H(HETATM   19  H4  HET A   1)   0.84350
   H(HETATM   20  H5  HET A   1)   0.79876
   H(HETATM   21 1H6  HET A   1)   0.80826
   H(HETATM   22 2H2  HET A   1)   0.63868
   H(HETATM   23 2H3  HET A   1)   0.61939
   H(HETATM   24 1H9  HET A   1)   0.80953
   H(HETATM   25 2H9  HET A   1)   0.78786
   H(HETATM   26 2H6  HET A   1)   0.64158

 **********************
 *                    *
 * JOB ENDED NORMALLY *
 *                    *
 **********************



 TOTAL JOB TIME:             0.05 SECONDS

 == MOPAC DONE ==
