 *******************************************************************************
 ** Site#: 37037        For non-commercial use only           Version 21.158W **
 *******************************************************************************
 ** Cite this program as: MOPAC2016, Version: 21.158W, James J. P. Stewart,   **
 ** Stewart Computational Chemistry, web: HTTP://OpenMOPAC.net. Days left: 361**
 *******************************************************************************
 **                                                                           **
 **                                MOPAC2016                                  **
 **                                                                           **
 *******************************************************************************

                              PM7 CALCULATION RESULTS

 *******************************************************************************
 *  CALCULATION DONE:                                Fri Jun 11 08:58:50 2021  *
 *  GEO_DAT    - DATA SET GEOMETRY IS IN FILE "Move Isochorismic acid and pyruvic acid plus salicylic acid towards each other bias=10.0 first.mop"
 *  GEO_REF    - REFERENCE GEOMETRY IS IN FILE "Move Isochorismic acid and pyruvic acid plus salicylic acid towards each other bias=10.0 second.mop"
 *               (NO BIAS TOWARDS THE REFERENCE GEOMETRY WILL BE APPLIED)
 *  SADDLE     - TRANSITION STATE TO BE OPTIMIZED
 *  T=         - A TIME OF 172800.0 SECONDS REQUESTED
 *  DUMP=N     - RESTART FILE WRITTEN EVERY 7200.0 SECONDS REQUESTED
 *******************************************************************************
saddle geo_dat="Move Isochorismic acid and pyruvic acid plus salicylic acid towards each other bias=10.0 first.mop" geo_ref="Move Isochorismic acid and pyruvic acid plus salicylic acid towards each other bias=10.0 second.mop"
 Move up activation barrier to near to the transition-state geometry

   ATOM                 CHEMICAL                   X               Y               Z
  NUMBER                 SYMBOL               (ANGSTROMS)     (ANGSTROMS)     (ANGSTROMS)
 
     1       C(HETATM    1  C1  HET A   1)   -0.01829747  *  -0.06389521  *  -0.53391144  *
     2       C(HETATM    2  C2  HET A   1)   -1.12363987  *  -0.91514833  *  -0.41681784  *
     3       C(HETATM    3  C3  HET A   1)   -0.97336023  *  -2.22526603  *   0.00494603  *
     4       C(HETATM    4  C4  HET A   1)    0.30075979  *  -2.73406032  *   0.29178411  *
     5       C(HETATM    5  C5  HET A   1)    1.40971143  *  -1.93402454  *   0.09659624  *
     6       C(HETATM    6  C6  HET A   1)    1.25384631  *  -0.60228465  *  -0.31653850  *
     7       C(HETATM    7  C7  HET A   1)   -0.14594003  *   1.34266401  *  -0.86195261  *
     8       O(HETATM    8  O1  HET A   1)    0.77800594  *   2.12716568  *  -0.98068456  *
     9       O(HETATM    9  O2  HET A   1)   -1.41554748  *   1.73924346  *  -1.10078782  *
    10       O(HETATM   10  O3  HET A   1)    2.37970015  *   0.10816456  *  -0.48686607  *
    11       O(HETATM   11  O4  HET A   1)    2.70618017  *  -2.80195214  *   1.99653902  *
    12       C(HETATM   12  C8  HET A   1)    3.67285898  *  -2.09396212  *   2.02568174  *
    13       C(HETATM   13  C9  HET A   1)    3.88165654  *  -0.75942245  *   1.42852355  *
    14       C(HETATM   14  C10 HET A   1)    4.89098884  *  -2.65471782  *   2.71512658  *
    15       O(HETATM   15  O5  HET A   1)    5.73287369  *  -3.26888991  *   2.13761152  *
    16       O(HETATM   16  O6  HET A   1)    4.99076302  *  -2.28581978  *   4.00420305  *
    17       H(HETATM   17 1H2  HET A   1)   -2.11232582  *  -0.51923579  *  -0.64177571  *
    18       H(HETATM   18 1H3  HET A   1)   -1.83385251  *  -2.87370899  *   0.12496217  *
    19       H(HETATM   19  H4  HET A   1)    0.43262964  *  -3.75823432  *   0.65742247  *
    20       H(HETATM   20  H5  HET A   1)    2.40858564  *  -2.36185819  *   0.09108805  *
    21       H(HETATM   21 1H6  HET A   1)    4.46107714  *  -0.69186319  *   0.48821232  *
    22       H(HETATM   22 2H2  HET A   1)   -1.47538368  *   2.69914518  *  -1.33610814  *
    23       H(HETATM   23 2H3  HET A   1)    2.20761795  *   1.03392370  *  -0.86179077  *
    24       H(HETATM   24 1H9  HET A   1)    4.48525621  *  -0.12906565  *   2.08770499  *
    25       H(HETATM   25 2H9  HET A   1)    2.86748003  *  -0.29386278  *   1.23821899  *
    26       H(HETATM   26 2H6  HET A   1)    5.82775793  *  -2.57612142  *   4.43488990  *
 

                        After docking

                     Atoms that move a lot

                     Atom Label             GEO_REF Coordinates       Movement    Integral

            (HETATM   15  O5  HET A   1)   4.380  -3.820   3.100        1.83         1.83
            (HETATM   24 1H9  HET A   1)   5.457  -0.831   1.209        1.28         3.11
            (HETATM   25 2H9  HET A   1)   1.933   0.066   1.114        1.06         4.17
            (HETATM   11  O4  HET A   1)   2.419  -2.141   1.675        0.78         4.95
            (HETATM   13  C9  HET A   1)   4.473  -1.147   0.914        0.74         5.70
            (HETATM    6  C6  HET A   1)   1.494  -0.408   0.180        0.60         6.30
            (HETATM   20  H5  HET A   1)   2.403  -2.288  -0.430        0.56         6.86
            (HETATM   14  C10 HET A   1)   4.481  -2.667   2.806        0.53         7.39
            (HETATM   16  O6  HET A   1)   5.274  -1.858   3.549        0.50         7.89
            (HETATM    5  C5  HET A   1)   1.739  -1.920   0.381        0.45         8.34
            (HETATM    9  O2  HET A   1)  -1.436   1.695  -0.590        0.45         8.79
            (HETATM   21 1H6  HET A   1)   4.136  -0.616   0.057        0.44         9.23
            (HETATM   22 2H2  HET A   1)  -1.602   2.628  -0.904        0.43         9.65
            (HETATM   26 2H6  HET A   1)   5.691  -2.316   4.332        0.40        10.05
            (HETATM   19  H4  HET A   1)   0.686  -3.816   0.692        0.38        10.43
            (HETATM   18 1H3  HET A   1)  -1.622  -2.943   0.288        0.36        10.79
            (HETATM    3  C3  HET A   1)  -0.735  -2.306   0.226        0.34        11.13
            (HETATM   12  C8  HET A   1)   3.765  -1.915   1.727        0.29        11.42
            (HETATM   10  O3  HET A   1)   2.342   0.033  -0.858        0.28        11.71
            (HETATM    4  C4  HET A   1)   0.506  -2.771   0.440        0.28        11.99
            (HETATM    1  C1  HET A   1)   0.069  -0.051  -0.218        0.28        12.27
            (HETATM   17 1H2  HET A   1)  -1.992  -0.625  -0.389        0.25        12.52
            (HETATM    2  C2  HET A   1)  -0.958  -0.921  -0.151        0.24        12.76
            (HETATM    7  C7  HET A   1)  -0.136   1.327  -0.699        0.15        12.92
            (HETATM    8  O1  HET A   1)   0.666   2.133  -1.111        0.13        13.05

     Residues that move a lot and their (Movement in Angstroms, per atom)


   Difference between GEO_DAT and GEO_REF: 13.129 = total,  0.5049 = Average,  0.6296 = RMS, in Angstroms

 General Reference for PM7:
 "Optimization of Parameters for Semiempirical Methods VI: More Modifications to the 
 NDDO Approximations and Re-optimization of Parameters", J. J. P. Stewart, J. Mol. Mod., 1:32, 19 (2013)
 https://link.springer.com/article/10.1007/s00894-012-1667-x

           Empirical Formula: C10 H10 O6  =    26 atoms



      MOLECULAR POINT GROUP   :   C1  


      RHF CALCULATION, NO. OF DOUBLY OCCUPIED LEVELS = 43



  CARTESIAN GEOMETRY OF FIRST SYSTEM


   1    C          0.06900      -0.05109      -0.21774
   2    C         -0.95835      -0.92142      -0.15141
   3    C         -0.73519      -2.30610       0.22572
   4    C          0.50616      -2.77062       0.44020
   5    C          1.73947      -1.91994       0.38070
   6    C          1.49396      -0.40819       0.17982
   7    C         -0.13649       1.32712      -0.69887
   8    O          0.66646       2.13344      -1.11128
   9    O         -1.43582       1.69501      -0.58951
  10    O          2.34167       0.03341      -0.85788
  11    O          2.41944      -2.14111       1.67547
  12    C          3.76463      -1.91465       1.72728
  13    C          4.47332      -1.14655       0.91431
  14    C          4.48062      -2.66738       2.80594
  15    O          4.38042      -3.82041       3.10019
  16    O          5.27355      -1.85822       3.54889
  17    H         -1.99233      -0.62501      -0.38942
  18    H         -1.62162      -2.94345       0.28835
  19    H          0.68644      -3.81565       0.69171
  20    H          2.40256      -2.28811      -0.43016
  21    H          4.13575      -0.61588       0.05700
  22    H         -1.60217       2.62822      -0.90435
  23    H          2.15707       0.98427      -1.05319
  24    H          5.45685      -0.83073       1.20883
  25    H          1.93301       0.06584       1.11350
  26    H          5.69069      -2.31592       4.33219


  CARTESIAN GEOMETRY OF SECOND SYSTEM


   1    C         -0.05810      -0.05967      -0.46705
   2    C         -1.17838      -0.86939      -0.24467
   3    C         -1.04049      -2.16392       0.22654
   4    C          0.23359      -2.69997       0.45874
   5    C          1.35115      -1.94492       0.16061
   6    C          1.20885      -0.62824      -0.30264
   7    C         -0.16482       1.33455      -0.85056
   8    O          0.77245       2.08331      -1.06057
   9    O         -1.43469       1.76050      -1.03006
  10    O          2.34220       0.03791      -0.57291
  11    O          2.73677      -2.76974       2.01632
  12    C          3.72358      -2.09226       1.95467
  13    C          3.93380      -0.79243       1.28576
  14    C          4.96517      -2.66080       2.59408
  15    O          5.75154      -3.32612       1.99535
  16    O          5.15510      -2.23925       3.85661
  17    H         -2.16715      -0.45244      -0.42728
  18    H         -1.91041      -2.77879       0.42778
  19    H          0.35796      -3.71085       0.86206
  20    H          2.33491      -2.40415       0.11426
  21    H          4.45572      -0.78453       0.31005
  22    H         -1.48101       2.71061      -1.30486
  23    H          2.17427       0.95139      -0.97857
  24    H          4.59506      -0.15338       1.87783
  25    H          2.92377      -0.30361       1.13607
  26    H          6.00832      -2.53692       4.24871


   "DISTANCE":     3.210222


  REACTION COORDINATE VECTOR


   1    C          0.12711       0.00858       0.24930
   2    C          0.22003      -0.05203       0.09326
   3    C          0.30530      -0.14217      -0.00082
   4    C          0.27258      -0.07065      -0.01854
   5    C          0.38832       0.02498       0.22009
   6    C          0.28512       0.22005       0.48246
   7    C          0.02833      -0.00743       0.15170
   8    O         -0.10598       0.05013      -0.05071
   9    O         -0.00113      -0.06549       0.44055
  10    O         -0.00053      -0.00450      -0.28496
  11    O         -0.31733       0.62862      -0.34085
  12    C          0.04105       0.17762      -0.22740
  13    C          0.53953      -0.35411      -0.37145
  14    C         -0.48455      -0.00658       0.21185
  15    O         -1.37112      -0.49429       1.10485
  16    O          0.11845       0.38102      -0.30772
  17    H          0.17482      -0.17258       0.03786
  18    H          0.28879      -0.16465      -0.13943
  19    H          0.32848      -0.10480      -0.17035
  20    H          0.06765       0.11604      -0.54442
  21    H         -0.31996       0.16865      -0.25304
  22    H         -0.12116      -0.08239       0.40051
  23    H         -0.01720       0.03288      -0.07462
  24    H          0.86180      -0.67735      -0.66900
  25    H         -0.99076       0.36946      -0.02257
  26    H         -0.31762       0.22100       0.08347
 *+*+*+*+*+*+*+*+*+*+*+*+*+*+*+*+*+*+*+*+*+*+*+*+*+*+*+*+*+*+*+*+*+*+*+*+*+*+*+*+
            BAR SHORTENED BY       0.000 PERCENT
 GRADIENT CRITERION IN FLEPO =     1.000
           THERE HAVE BEEN 3 ATTEMPTS TO REDUCE THE GRADIENT.
           DURING THESE ATTEMPTS THE ENERGY DROPPED BY LESS THAN 0.3 KCAL/MOLE
           FURTHER CALCULATION IS NOT JUSTIFIED AT THIS TIME.
           TO CONTINUE, START AGAIN WITH THE WORD "PRECISE"


          FOR POINT    1 SECOND STRUCTURE
 DISTANCE A - B      3.210222
 HEAT             -212.514802
 GRADIENT NORM       5.282603
 DIRECTION COSINE    0.000021

 Move up activation barrier to near to the transition-state geometry

  C(HETATM    1  C1  HET A   1)   0.00000000 +0    0.0000000 +0    0.0000000 +0
  C(HETATM    2  C2  HET A   1)   1.34471774 +1    0.0000000 +0    0.0000000 +0     1     0     0
  C(HETATM    3  C3  HET A   1)   1.45187322 +1  120.7766264 +1    0.0000000 +0     2     1     0
  C(HETATM    4  C4  HET A   1)   1.34091623 +1  121.3462524 +1   -5.0155198 +1     3     2     1
  C(HETATM    5  C5  HET A   1)   1.50085621 +1  122.8200118 +1   -2.6787212 +1     4     3     2
  C(HETATM    6  C6  HET A   1)   1.50504699 +1  123.0812005 +1   -0.0118349 +1     1     2     3
  C(HETATM    7  C7  HET A   1)   1.46682252 +1  122.3548237 +1  178.2817465 +1     1     2     3
  O(HETATM    8  O1  HET A   1)   1.21108335 +1  127.5961088 +1 -164.1568183 +1     7     1     2
  O(HETATM    9  O2  HET A   1)   1.35553997 +1  112.4043731 +1   15.2088445 +1     7     1     2
  O(HETATM   10  O3  HET A   1)   1.41522038 +1  109.2772190 +1  127.0078503 +1     6     1     2
  O(HETATM   11  O4  HET A   1)   1.43578303 +1  102.5961751 +1  133.3218437 +1     5     4     3
  C(HETATM   12  C8  HET A   1)   1.36063745 +1  118.2449086 +1  162.1346255 +1    11     5     4
  C(HETATM   13  C9  HET A   1)   1.33052030 +1  130.4786242 +1   24.7208937 +1    12    11     5
  C(HETATM   14  C10 HET A   1)   1.49228657 +1  108.5601924 +1 -155.4287897 +1    12    11     5
  O(HETATM   15  O5  HET A   1)   1.19950637 +1  128.6023884 +1   55.8773258 +1    14    12    11
  O(HETATM   16  O6  HET A   1)   1.35784948 +1  109.8495341 +1 -128.3980060 +1    14    12    11
  H(HETATM   17 1H2  HET A   1)   1.09663908 +1  121.9097599 +1  179.7088584 +1     2     1     3
  H(HETATM   18 1H3  HET A   1)   1.09096045 +1  116.7134787 +1  174.7916057 +1     3     2     1
  H(HETATM   19  H4  HET A   1)   1.09227045 +1  122.5368585 +1  178.0943427 +1     4     3     2
  H(HETATM   20  H5  HET A   1)   1.12215607 +1  110.3526146 +1 -110.4463566 +1     5     4     3
  H(HETATM   21 1H6  HET A   1)   1.08102468 +1  125.7217505 +1   -6.1744327 +1    13    12    11
  H(HETATM   22 2H2  HET A   1)   0.99275107 +1  113.0814299 +1 -178.7407234 +1     9     7     1
  H(HETATM   23 2H3  HET A   1)   0.98807129 +1  110.4506273 +1   50.8823183 +1    10     6     1
  H(HETATM   24 1H9  HET A   1)   1.08105333 +1  122.4429108 +1  173.4595624 +1    13    12    11
  H(HETATM   25 2H9  HET A   1)   1.12176082 +1  110.7677506 +1 -113.7783264 +1     6     1     2
  H(HETATM   26 2H6  HET A   1)   0.98893972 +1  113.3708612 +1 -176.8249109 +1    16    14    12
 
 TIME=     0.39
  REACTANTS AND PRODUCTS SWAPPED AROUND
 *+*+*+*+*+*+*+*+*+*+*+*+*+*+*+*+*+*+*+*+*+*+*+*+*+*+*+*+*+*+*+*+*+*+*+*+*+*+*+*+
            BAR SHORTENED BY       1.000 PERCENT
 GRADIENT CRITERION IN FLEPO =     2.283
           THERE HAVE BEEN 3 ATTEMPTS TO REDUCE THE GRADIENT.
           DURING THESE ATTEMPTS THE ENERGY DROPPED BY LESS THAN 0.3 KCAL/MOLE
           FURTHER CALCULATION IS NOT JUSTIFIED AT THIS TIME.
           TO CONTINUE, START AGAIN WITH THE WORD "PRECISE"


          FOR POINT    2 FIRST  STRUCTURE
 DISTANCE A - B      3.178120
 HEAT             -246.167289
 GRADIENT NORM       9.074199
 DIRECTION COSINE    0.018265

 Move up activation barrier to near to the transition-state geometry

  C(HETATM    1  C1  HET A   1)   0.00000000 +0    0.0000000 +0    0.0000000 +0
  C(HETATM    2  C2  HET A   1)   1.40347632 +1    0.0000000 +0    0.0000000 +0     1     0     0
  C(HETATM    3  C3  HET A   1)   1.38337707 +1  120.5126359 +1    0.0000000 +0     2     1     0
  C(HETATM    4  C4  HET A   1)   1.40516624 +1  120.1347203 +1   -2.4304718 +1     3     2     1
  C(HETATM    5  C5  HET A   1)   1.38349548 +1  120.7159095 +1   -0.3250959 +1     4     3     2
  C(HETATM    6  C6  HET A   1)   1.40452067 +1  118.6392027 +1    3.2308084 +1     5     4     3
  C(HETATM    7  C7  HET A   1)   1.45193935 +1  121.9181397 +1 -177.1044924 +1     1     2     3
  O(HETATM    8  O1  HET A   1)   1.21738290 +1  126.6411675 +1  173.2491393 +1     7     1     2
  O(HETATM    9  O2  HET A   1)   1.35253833 +1  113.5484912 +1   -6.7294670 +1     7     1     2
  O(HETATM   10  O3  HET A   1)   1.34631150 +1  115.9441324 +1  176.1287411 +1     6     5     4
  O(HETATM   11  O4  HET A   1)   2.79740947 +1   87.3634734 +1  121.6525830 +1     5     4     3
  C(HETATM   12  C8  HET A   1)   1.19869066 +1  103.7112874 +1 -179.7764812 +1    11     5     4
  C(HETATM   13  C9  HET A   1)   1.48247148 +1  126.4939460 +1   36.8721388 +1    12    11     5
  C(HETATM   14  C10 HET A   1)   1.52680861 +1  119.3683287 +1 -141.7846094 +1    12    11     5
  O(HETATM   15  O5  HET A   1)   1.19807605 +1  128.6147701 +1   83.1471326 +1    14    12    11
  O(HETATM   16  O6  HET A   1)   1.35068319 +1  108.5915779 +1  -98.9684699 +1    14    12    11
  H(HETATM   17 1H2  HET A   1)   1.09315383 +1  119.3657989 +1  179.7655550 +1     2     1     3
  H(HETATM   18 1H3  HET A   1)   1.08413282 +1  120.3964758 +1  177.6115745 +1     3     2     1
  H(HETATM   19  H4  HET A   1)   1.08964594 +1  119.7384301 +1  179.3743020 +1     4     3     2
  H(HETATM   20  H5  HET A   1)   1.08439226 +1  121.5653407 +1 -177.7461838 +1     5     4     3
  H(HETATM   21 1H6  HET A   1)   1.10711906 +1  111.4040609 +1  -78.1509685 +1    13    12    11
  H(HETATM   22 2H2  HET A   1)   0.99559275 +1  112.6744650 +1  179.7125920 +1     9     7     1
  H(HETATM   23 2H3  HET A   1)   1.00995181 +1  111.6884902 +1 -179.6791323 +1    10     6     5
  H(HETATM   24 1H9  HET A   1)   1.09955727 +1  113.7219704 +1  160.8689851 +1    13    12    11
  H(HETATM   25 2H9  HET A   1)   1.10137098 +1  111.1351362 +1   38.5873596 +1    13    12    11
  H(HETATM   26 2H6  HET A   1)   0.99014095 +1  114.3324156 +1  178.1279476 +1    16    14    12
 
 *+*+*+*+*+*+*+*+*+*+*+*+*+*+*+*+*+*+*+*+*+*+*+*+*+*+*+*+*+*+*+*+*+*+*+*+*+*+*+*+
            BAR SHORTENED BY       1.000 PERCENT
 GRADIENT CRITERION IN FLEPO =     6.074


          FOR POINT    3 FIRST  STRUCTURE
 DISTANCE A - B      3.146339
 HEAT             -246.104770
 GRADIENT NORM       8.189455
 DIRECTION COSINE    0.245482

 Move up activation barrier to near to the transition-state geometry

  C(HETATM    1  C1  HET A   1)   0.00000000 +0    0.0000000 +0    0.0000000 +0
  C(HETATM    2  C2  HET A   1)   1.40439437 +1    0.0000000 +0    0.0000000 +0     1     0     0
  C(HETATM    3  C3  HET A   1)   1.38316478 +1  120.4051032 +1    0.0000000 +0     2     1     0
  C(HETATM    4  C4  HET A   1)   1.40371204 +1  120.2626284 +1   -2.3317317 +1     3     2     1
  C(HETATM    5  C5  HET A   1)   1.38358293 +1  120.6426235 +1   -0.4854367 +1     4     3     2
  C(HETATM    6  C6  HET A   1)   1.40399235 +1  118.6928298 +1    3.4035727 +1     5     4     3
  C(HETATM    7  C7  HET A   1)   1.45202684 +1  121.8810817 +1 -177.3012641 +1     1     2     3
  O(HETATM    8  O1  HET A   1)   1.21823612 +1  126.5941565 +1  173.5682556 +1     7     1     2
  O(HETATM    9  O2  HET A   1)   1.35252784 +1  113.6312996 +1   -6.3529554 +1     7     1     2
  O(HETATM   10  O3  HET A   1)   1.34395984 +1  115.8923148 +1  176.6954684 +1     6     5     4
  O(HETATM   11  O4  HET A   1)   2.78060810 +1   87.5035795 +1  121.8673806 +1     5     4     3
  C(HETATM   12  C8  HET A   1)   1.19854873 +1  103.9519431 +1  179.9729693 +1    11     5     4
  C(HETATM   13  C9  HET A   1)   1.48164508 +1  126.2557262 +1   36.9032732 +1    12    11     5
  C(HETATM   14  C10 HET A   1)   1.52474454 +1  119.3391124 +1 -142.0746062 +1    12    11     5
  O(HETATM   15  O5  HET A   1)   1.19646754 +1  128.3837845 +1   82.8787052 +1    14    12    11
  O(HETATM   16  O6  HET A   1)   1.35182316 +1  108.8446067 +1  -99.2272939 +1    14    12    11
  H(HETATM   17 1H2  HET A   1)   1.09374542 +1  119.2879130 +1  179.9717711 +1     2     1     3
  H(HETATM   18 1H3  HET A   1)   1.09013045 +1  120.4049193 +1  177.7112333 +1     3     2     1
  H(HETATM   19  H4  HET A   1)   1.09296053 +1  119.6078814 +1  179.2952040 +1     4     3     2
  H(HETATM   20  H5  HET A   1)   1.08569837 +1  121.4557193 +1 -176.8398607 +1     5     4     3
  H(HETATM   21 1H6  HET A   1)   1.10791268 +1  111.5401832 +1  -78.4119719 +1    13    12    11
  H(HETATM   22 2H2  HET A   1)   0.99364075 +1  112.8061933 +1  179.7663241 +1     9     7     1
  H(HETATM   23 2H3  HET A   1)   1.01196028 +1  111.6709909 +1 -179.8813876 +1    10     6     5
  H(HETATM   24 1H9  HET A   1)   1.10117567 +1  113.4363498 +1  161.4290744 +1    13    12    11
  H(HETATM   25 2H9  HET A   1)   1.10335534 +1  111.0463105 +1   38.2107789 +1    13    12    11
  H(HETATM   26 2H6  HET A   1)   0.98918413 +1  114.1869356 +1  178.2175700 +1    16    14    12
 
 *+*+*+*+*+*+*+*+*+*+*+*+*+*+*+*+*+*+*+*+*+*+*+*+*+*+*+*+*+*+*+*+*+*+*+*+*+*+*+*+
            BAR SHORTENED BY       1.000 PERCENT
 GRADIENT CRITERION IN FLEPO =     5.189


          FOR POINT    4 FIRST  STRUCTURE
 DISTANCE A - B      3.114875
 HEAT             -245.958132
 GRADIENT NORM      15.340211
 DIRECTION COSINE    0.106157

 Move up activation barrier to near to the transition-state geometry

  C(HETATM    1  C1  HET A   1)   0.00000000 +0    0.0000000 +0    0.0000000 +0
  C(HETATM    2  C2  HET A   1)   1.40698551 +1    0.0000000 +0    0.0000000 +0     1     0     0
  C(HETATM    3  C3  HET A   1)   1.38387974 +1  120.4279165 +1    0.0000000 +0     2     1     0
  C(HETATM    4  C4  HET A   1)   1.40577490 +1  120.2419320 +1   -2.4709585 +1     3     2     1
  C(HETATM    5  C5  HET A   1)   1.38383977 +1  120.4784464 +1   -0.6081680 +1     4     3     2
  C(HETATM    6  C6  HET A   1)   1.40195480 +1  118.8470183 +1    3.5716058 +1     5     4     3
  C(HETATM    7  C7  HET A   1)   1.45010251 +1  121.8153266 +1 -177.5572989 +1     1     2     3
  O(HETATM    8  O1  HET A   1)   1.21916952 +1  126.2843469 +1  174.1931655 +1     7     1     2
  O(HETATM    9  O2  HET A   1)   1.34934518 +1  113.5720006 +1   -4.9310084 +1     7     1     2
  O(HETATM   10  O3  HET A   1)   1.34789999 +1  115.8847855 +1  177.2207223 +1     6     5     4
  O(HETATM   11  O4  HET A   1)   2.76408250 +1   87.5390690 +1  122.0677293 +1     5     4     3
  C(HETATM   12  C8  HET A   1)   1.19814054 +1  104.1391178 +1  179.6500842 +1    11     5     4
  C(HETATM   13  C9  HET A   1)   1.47947180 +1  126.2688220 +1   36.7624944 +1    12    11     5
  C(HETATM   14  C10 HET A   1)   1.52501933 +1  119.2741091 +1 -142.3766495 +1    12    11     5
  O(HETATM   15  O5  HET A   1)   1.19891138 +1  128.1342761 +1   82.7797065 +1    14    12    11
  O(HETATM   16  O6  HET A   1)   1.35344972 +1  109.1550613 +1  -99.3543067 +1    14    12    11
  H(HETATM   17 1H2  HET A   1)   1.09491571 +1  119.2633917 +1 -179.9794207 +1     2     1     3
  H(HETATM   18 1H3  HET A   1)   1.08402692 +1  120.3250057 +1  177.6067297 +1     3     2     1
  H(HETATM   19  H4  HET A   1)   1.09329886 +1  119.6169641 +1  179.3426639 +1     4     3     2
  H(HETATM   20  H5  HET A   1)   1.08769094 +1  121.2421823 +1 -176.1802184 +1     5     4     3
  H(HETATM   21 1H6  HET A   1)   1.10877329 +1  111.7327209 +1  -78.2516921 +1    13    12    11
  H(HETATM   22 2H2  HET A   1)   0.99804884 +1  112.7212374 +1 -179.2644463 +1     9     7     1
  H(HETATM   23 2H3  HET A   1)   1.00879723 +1  111.4316306 +1 -179.8845849 +1    10     6     5
  H(HETATM   24 1H9  HET A   1)   1.09839541 +1  113.3520242 +1  161.6582868 +1    13    12    11
  H(HETATM   25 2H9  HET A   1)   1.11107287 +1  110.5643513 +1   37.9980551 +1    13    12    11
  H(HETATM   26 2H6  HET A   1)   0.99092474 +1  114.0246521 +1  178.3682056 +1    16    14    12
 
 TIME=     0.50
  REACTANTS AND PRODUCTS SWAPPED AROUND
 *+*+*+*+*+*+*+*+*+*+*+*+*+*+*+*+*+*+*+*+*+*+*+*+*+*+*+*+*+*+*+*+*+*+*+*+*+*+*+*+
            BAR SHORTENED BY       0.000 PERCENT
 GRADIENT CRITERION IN FLEPO =    10.000


          FOR POINT    5 SECOND STRUCTURE
 DISTANCE A - B      3.114875
 HEAT             -212.627506
 GRADIENT NORM       5.282338
 DIRECTION COSINE    0.245677

 Move up activation barrier to near to the transition-state geometry

  C(HETATM    1  C1  HET A   1)   0.00000000 +0    0.0000000 +0    0.0000000 +0
  C(HETATM    2  C2  HET A   1)   1.34471774 +1    0.0000000 +0    0.0000000 +0     1     0     0
  C(HETATM    3  C3  HET A   1)   1.45187322 +1  120.7766264 +1    0.0000000 +0     2     1     0
  C(HETATM    4  C4  HET A   1)   1.34091623 +1  121.3462524 +1   -5.0155198 +1     3     2     1
  C(HETATM    5  C5  HET A   1)   1.50085621 +1  122.8200118 +1   -2.6787212 +1     4     3     2
  C(HETATM    6  C6  HET A   1)   1.50504699 +1  123.0812005 +1   -0.0118349 +1     1     2     3
  C(HETATM    7  C7  HET A   1)   1.46682252 +1  122.3548237 +1  178.2817465 +1     1     2     3
  O(HETATM    8  O1  HET A   1)   1.21108335 +1  127.5961088 +1 -164.1568183 +1     7     1     2
  O(HETATM    9  O2  HET A   1)   1.35553997 +1  112.4043731 +1   15.2088445 +1     7     1     2
  O(HETATM   10  O3  HET A   1)   1.41522038 +1  109.2772190 +1  127.0078503 +1     6     1     2
  O(HETATM   11  O4  HET A   1)   1.43578303 +1  102.5961751 +1  133.3218437 +1     5     4     3
  C(HETATM   12  C8  HET A   1)   1.36063745 +1  118.2449086 +1  162.1346255 +1    11     5     4
  C(HETATM   13  C9  HET A   1)   1.33052030 +1  130.4786242 +1   24.7208937 +1    12    11     5
  C(HETATM   14  C10 HET A   1)   1.49228657 +1  108.5601924 +1 -155.4287897 +1    12    11     5
  O(HETATM   15  O5  HET A   1)   1.19950637 +1  128.6023884 +1   55.8773258 +1    14    12    11
  O(HETATM   16  O6  HET A   1)   1.35784948 +1  109.8495341 +1 -128.3980060 +1    14    12    11
  H(HETATM   17 1H2  HET A   1)   1.09663908 +1  121.9097599 +1  179.7088584 +1     2     1     3
  H(HETATM   18 1H3  HET A   1)   1.09096045 +1  116.7134787 +1  174.7916057 +1     3     2     1
  H(HETATM   19  H4  HET A   1)   1.09227045 +1  122.5368585 +1  178.0943427 +1     4     3     2
  H(HETATM   20  H5  HET A   1)   1.12215607 +1  110.3526146 +1 -110.4463566 +1     5     4     3
  H(HETATM   21 1H6  HET A   1)   1.08102468 +1  125.7217505 +1   -6.1744327 +1    13    12    11
  H(HETATM   22 2H2  HET A   1)   0.99275107 +1  113.0814299 +1 -178.7407234 +1     9     7     1
  H(HETATM   23 2H3  HET A   1)   0.98807129 +1  110.4506273 +1   50.8823183 +1    10     6     1
  H(HETATM   24 1H9  HET A   1)   1.08105333 +1  122.4429108 +1  173.4595624 +1    13    12    11
  H(HETATM   25 2H9  HET A   1)   1.12176082 +1  110.7677506 +1 -113.7783264 +1     6     1     2
  H(HETATM   26 2H6  HET A   1)   0.98893972 +1  113.3708612 +1 -176.8249109 +1    16    14    12
 
 TIME=     0.02
  REACTANTS AND PRODUCTS SWAPPED AROUND
 *+*+*+*+*+*+*+*+*+*+*+*+*+*+*+*+*+*+*+*+*+*+*+*+*+*+*+*+*+*+*+*+*+*+*+*+*+*+*+*+
            BAR SHORTENED BY       1.000 PERCENT
 GRADIENT CRITERION IN FLEPO =     2.282
           THERE HAVE BEEN 3 ATTEMPTS TO REDUCE THE GRADIENT.
           DURING THESE ATTEMPTS THE ENERGY DROPPED BY LESS THAN 0.3 KCAL/MOLE
           FURTHER CALCULATION IS NOT JUSTIFIED AT THIS TIME.
           TO CONTINUE, START AGAIN WITH THE WORD "PRECISE"


          FOR POINT    6 FIRST  STRUCTURE
 DISTANCE A - B      3.083726
 HEAT             -245.962880
 GRADIENT NORM      13.470027
 DIRECTION COSINE    0.112564

 Move up activation barrier to near to the transition-state geometry

  C(HETATM    1  C1  HET A   1)   0.00000000 +0    0.0000000 +0    0.0000000 +0
  C(HETATM    2  C2  HET A   1)   1.40516527 +1    0.0000000 +0    0.0000000 +0     1     0     0
  C(HETATM    3  C3  HET A   1)   1.38327118 +1  120.3347479 +1    0.0000000 +0     2     1     0
  C(HETATM    4  C4  HET A   1)   1.40402012 +1  120.3624362 +1   -2.1750549 +1     3     2     1
  C(HETATM    5  C5  HET A   1)   1.38358082 +1  120.5391770 +1   -1.0977845 +1     4     3     2
  C(HETATM    6  C6  HET A   1)   1.40450738 +1  118.7935645 +1    3.8108647 +1     5     4     3
  C(HETATM    7  C7  HET A   1)   1.45214067 +1  121.9347520 +1 -177.7497043 +1     1     2     3
  O(HETATM    8  O1  HET A   1)   1.21820369 +1  126.5445445 +1  175.1508319 +1     7     1     2
  O(HETATM    9  O2  HET A   1)   1.35236495 +1  113.5157037 +1   -4.9389600 +1     7     1     2
  O(HETATM   10  O3  HET A   1)   1.34377199 +1  115.8736873 +1  177.2692421 +1     6     5     4
  O(HETATM   11  O4  HET A   1)   2.74169387 +1   87.5462952 +1  122.3425494 +1     5     4     3
  C(HETATM   12  C8  HET A   1)   1.19957952 +1  104.6188234 +1  179.8440150 +1    11     5     4
  C(HETATM   13  C9  HET A   1)   1.48156819 +1  126.1115097 +1   35.8312649 +1    12    11     5
  C(HETATM   14  C10 HET A   1)   1.52620309 +1  119.3704931 +1 -142.3187378 +1    12    11     5
  O(HETATM   15  O5  HET A   1)   1.19373861 +1  127.7077751 +1   81.3543537 +1    14    12    11
  O(HETATM   16  O6  HET A   1)   1.35028796 +1  109.1291399 +1 -100.1344645 +1    14    12    11
  H(HETATM   17 1H2  HET A   1)   1.09230354 +1  119.1115724 +1 -179.6404167 +1     2     1     3
  H(HETATM   18 1H3  HET A   1)   1.08793344 +1  120.2345458 +1  178.1708694 +1     3     2     1
  H(HETATM   19  H4  HET A   1)   1.09335210 +1  119.6225000 +1  179.0544416 +1     4     3     2
  H(HETATM   20  H5  HET A   1)   1.08714725 +1  121.4578708 +1 -176.0684095 +1     5     4     3
  H(HETATM   21 1H6  HET A   1)   1.11158438 +1  112.1918723 +1  -77.7550700 +1    13    12    11
  H(HETATM   22 2H2  HET A   1)   0.99327394 +1  112.8533559 +1 -179.3767179 +1     9     7     1
  H(HETATM   23 2H3  HET A   1)   1.01222127 +1  111.5748617 +1  179.9680170 +1    10     6     5
  H(HETATM   24 1H9  HET A   1)   1.09721297 +1  113.5778836 +1  161.6657490 +1    13    12    11
  H(HETATM   25 2H9  HET A   1)   1.10853407 +1  110.5406215 +1   38.7707114 +1    13    12    11
  H(HETATM   26 2H6  HET A   1)   0.98972981 +1  114.0902678 +1  178.4422223 +1    16    14    12
 
 *+*+*+*+*+*+*+*+*+*+*+*+*+*+*+*+*+*+*+*+*+*+*+*+*+*+*+*+*+*+*+*+*+*+*+*+*+*+*+*+
            BAR SHORTENED BY       1.000 PERCENT
 GRADIENT CRITERION IN FLEPO =    10.000


          FOR POINT    7 FIRST  STRUCTURE
 DISTANCE A - B      3.052889
 HEAT             -245.758994
 GRADIENT NORM      17.080043
 DIRECTION COSINE    0.228056

 Move up activation barrier to near to the transition-state geometry

  C(HETATM    1  C1  HET A   1)   0.00000000 +0    0.0000000 +0    0.0000000 +0
  C(HETATM    2  C2  HET A   1)   1.40352884 +1    0.0000000 +0    0.0000000 +0     1     0     0
  C(HETATM    3  C3  HET A   1)   1.38416395 +1  120.4997055 +1    0.0000000 +0     2     1     0
  C(HETATM    4  C4  HET A   1)   1.40548940 +1  120.1799410 +1   -2.1264807 +1     3     2     1
  C(HETATM    5  C5  HET A   1)   1.38459849 +1  120.3745000 +1   -1.4749051 +1     4     3     2
  C(HETATM    6  C6  HET A   1)   1.40156670 +1  118.9149657 +1    4.3499299 +1     5     4     3
  C(HETATM    7  C7  HET A   1)   1.45247026 +1  121.8350788 +1 -177.8609677 +1     1     2     3
  O(HETATM    8  O1  HET A   1)   1.21726597 +1  126.4672397 +1  175.7605908 +1     7     1     2
  O(HETATM    9  O2  HET A   1)   1.35216535 +1  113.6150215 +1   -4.5360976 +1     7     1     2
  O(HETATM   10  O3  HET A   1)   1.34799066 +1  115.8333777 +1  177.7002648 +1     6     5     4
  O(HETATM   11  O4  HET A   1)   2.73000317 +1   87.5330607 +1  122.7290275 +1     5     4     3
  C(HETATM   12  C8  HET A   1)   1.19646970 +1  104.4898192 +1  179.3280051 +1    11     5     4
  C(HETATM   13  C9  HET A   1)   1.47866289 +1  126.2956374 +1   36.4171269 +1    12    11     5
  C(HETATM   14  C10 HET A   1)   1.52708102 +1  119.1490071 +1 -143.1673761 +1    12    11     5
  O(HETATM   15  O5  HET A   1)   1.19672025 +1  127.1527092 +1   81.9466063 +1    14    12    11
  O(HETATM   16  O6  HET A   1)   1.34902513 +1  109.7166657 +1  -99.7289151 +1    14    12    11
  H(HETATM   17 1H2  HET A   1)   1.09509294 +1  119.1787818 +1 -179.7094170 +1     2     1     3
  H(HETATM   18 1H3  HET A   1)   1.08470844 +1  120.4525737 +1  177.9635681 +1     3     2     1
  H(HETATM   19  H4  HET A   1)   1.09352970 +1  119.6109409 +1  178.9808624 +1     4     3     2
  H(HETATM   20  H5  HET A   1)   1.08862056 +1  121.1778642 +1 -175.4685623 +1     5     4     3
  H(HETATM   21 1H6  HET A   1)   1.10857327 +1  112.0393046 +1  -78.3084810 +1    13    12    11
  H(HETATM   22 2H2  HET A   1)   0.99349169 +1  112.8486585 +1 -179.3517102 +1     9     7     1
  H(HETATM   23 2H3  HET A   1)   1.00963492 +1  111.4028903 +1  179.5813929 +1    10     6     5
  H(HETATM   24 1H9  HET A   1)   1.09858189 +1  113.5711150 +1  161.4562877 +1    13    12    11
  H(HETATM   25 2H9  HET A   1)   1.11694702 +1  110.2069680 +1   37.7393411 +1    13    12    11
  H(HETATM   26 2H6  HET A   1)   0.99312921 +1  114.4703482 +1  178.4012196 +1    16    14    12
 
 *+*+*+*+*+*+*+*+*+*+*+*+*+*+*+*+*+*+*+*+*+*+*+*+*+*+*+*+*+*+*+*+*+*+*+*+*+*+*+*+
            BAR SHORTENED BY       1.000 PERCENT
 GRADIENT CRITERION IN FLEPO =    10.000


          FOR POINT    8 FIRST  STRUCTURE
 DISTANCE A - B      3.022360
 HEAT             -245.542293
 GRADIENT NORM      18.931626
 DIRECTION COSINE    0.131471

 Move up activation barrier to near to the transition-state geometry

  C(HETATM    1  C1  HET A   1)   0.00000000 +0    0.0000000 +0    0.0000000 +0
  C(HETATM    2  C2  HET A   1)   1.40402715 +1    0.0000000 +0    0.0000000 +0     1     0     0
  C(HETATM    3  C3  HET A   1)   1.38390810 +1  120.4608254 +1    0.0000000 +0     2     1     0
  C(HETATM    4  C4  HET A   1)   1.40107281 +1  120.3041368 +1   -2.1590627 +1     3     2     1
  C(HETATM    5  C5  HET A   1)   1.38286016 +1  120.5518442 +1   -1.5003608 +1     4     3     2
  C(HETATM    6  C6  HET A   1)   1.40354355 +1  118.8848831 +1    4.2535404 +1     5     4     3
  C(HETATM    7  C7  HET A   1)   1.45051127 +1  121.9788525 +1 -178.1179945 +1     1     2     3
  O(HETATM    8  O1  HET A   1)   1.22106324 +1  126.5118946 +1  176.1750384 +1     7     1     2
  O(HETATM    9  O2  HET A   1)   1.35226608 +1  113.5478777 +1   -4.0243456 +1     7     1     2
  O(HETATM   10  O3  HET A   1)   1.34282924 +1  115.9695233 +1  178.2091053 +1     6     5     4
  O(HETATM   11  O4  HET A   1)   2.70742935 +1   87.8708540 +1  122.8613812 +1     5     4     3
  C(HETATM   12  C8  HET A   1)   1.20079090 +1  105.1478402 +1  179.4604227 +1    11     5     4
  C(HETATM   13  C9  HET A   1)   1.47852002 +1  125.6511866 +1   35.7189417 +1    12    11     5
  C(HETATM   14  C10 HET A   1)   1.52145381 +1  119.2529410 +1 -143.1419353 +1    12    11     5
  O(HETATM   15  O5  HET A   1)   1.19767569 +1  127.1051310 +1   81.1781433 +1    14    12    11
  O(HETATM   16  O6  HET A   1)   1.34884184 +1  109.7541016 +1 -100.5697839 +1    14    12    11
  H(HETATM   17 1H2  HET A   1)   1.09118375 +1  119.0474800 +1 -179.4772621 +1     2     1     3
  H(HETATM   18 1H3  HET A   1)   1.08826443 +1  120.2629543 +1  178.0734469 +1     3     2     1
  H(HETATM   19  H4  HET A   1)   1.09676832 +1  119.6838288 +1  178.7433404 +1     4     3     2
  H(HETATM   20  H5  HET A   1)   1.08755387 +1  121.5204653 +1 -174.5899626 +1     5     4     3
  H(HETATM   21 1H6  HET A   1)   1.11825722 +1  112.4635699 +1  -77.6998764 +1    13    12    11
  H(HETATM   22 2H2  HET A   1)   0.99437631 +1  113.0279214 +1 -178.9244715 +1     9     7     1
  H(HETATM   23 2H3  HET A   1)   1.01324993 +1  111.5163849 +1  179.3484585 +1    10     6     5
  H(HETATM   24 1H9  HET A   1)   1.10130889 +1  112.9832073 +1  162.6510963 +1    13    12    11
  H(HETATM   25 2H9  HET A   1)   1.11542079 +1  110.1953351 +1   38.3465799 +1    13    12    11
  H(HETATM   26 2H6  HET A   1)   0.99167285 +1  114.2567916 +1  178.5630067 +1    16    14    12
 
 TIME=     0.21
  REACTANTS AND PRODUCTS SWAPPED AROUND
 *+*+*+*+*+*+*+*+*+*+*+*+*+*+*+*+*+*+*+*+*+*+*+*+*+*+*+*+*+*+*+*+*+*+*+*+*+*+*+*+
            BAR SHORTENED BY       0.000 PERCENT
 GRADIENT CRITERION IN FLEPO =    10.000


          FOR POINT    9 SECOND STRUCTURE
 DISTANCE A - B      3.022360
 HEAT             -212.627506
 GRADIENT NORM       5.282337
 DIRECTION COSINE    0.412741

 Move up activation barrier to near to the transition-state geometry

  C(HETATM    1  C1  HET A   1)   0.00000000 +0    0.0000000 +0    0.0000000 +0
  C(HETATM    2  C2  HET A   1)   1.34471774 +1    0.0000000 +0    0.0000000 +0     1     0     0
  C(HETATM    3  C3  HET A   1)   1.45187322 +1  120.7766264 +1    0.0000000 +0     2     1     0
  C(HETATM    4  C4  HET A   1)   1.34091623 +1  121.3462524 +1   -5.0155198 +1     3     2     1
  C(HETATM    5  C5  HET A   1)   1.50085621 +1  122.8200118 +1   -2.6787212 +1     4     3     2
  C(HETATM    6  C6  HET A   1)   1.50504699 +1  123.0812005 +1   -0.0118349 +1     1     2     3
  C(HETATM    7  C7  HET A   1)   1.46682252 +1  122.3548237 +1  178.2817465 +1     1     2     3
  O(HETATM    8  O1  HET A   1)   1.21108335 +1  127.5961088 +1 -164.1568183 +1     7     1     2
  O(HETATM    9  O2  HET A   1)   1.35553997 +1  112.4043731 +1   15.2088445 +1     7     1     2
  O(HETATM   10  O3  HET A   1)   1.41522038 +1  109.2772190 +1  127.0078503 +1     6     1     2
  O(HETATM   11  O4  HET A   1)   1.43578303 +1  102.5961751 +1  133.3218437 +1     5     4     3
  C(HETATM   12  C8  HET A   1)   1.36063745 +1  118.2449086 +1  162.1346255 +1    11     5     4
  C(HETATM   13  C9  HET A   1)   1.33052030 +1  130.4786242 +1   24.7208937 +1    12    11     5
  C(HETATM   14  C10 HET A   1)   1.49228657 +1  108.5601924 +1 -155.4287897 +1    12    11     5
  O(HETATM   15  O5  HET A   1)   1.19950637 +1  128.6023884 +1   55.8773258 +1    14    12    11
  O(HETATM   16  O6  HET A   1)   1.35784948 +1  109.8495341 +1 -128.3980060 +1    14    12    11
  H(HETATM   17 1H2  HET A   1)   1.09663908 +1  121.9097599 +1  179.7088584 +1     2     1     3
  H(HETATM   18 1H3  HET A   1)   1.09096045 +1  116.7134787 +1  174.7916057 +1     3     2     1
  H(HETATM   19  H4  HET A   1)   1.09227045 +1  122.5368585 +1  178.0943427 +1     4     3     2
  H(HETATM   20  H5  HET A   1)   1.12215607 +1  110.3526146 +1 -110.4463566 +1     5     4     3
  H(HETATM   21 1H6  HET A   1)   1.08102468 +1  125.7217505 +1   -6.1744327 +1    13    12    11
  H(HETATM   22 2H2  HET A   1)   0.99275107 +1  113.0814299 +1 -178.7407234 +1     9     7     1
  H(HETATM   23 2H3  HET A   1)   0.98807129 +1  110.4506273 +1   50.8823183 +1    10     6     1
  H(HETATM   24 1H9  HET A   1)   1.08105333 +1  122.4429108 +1  173.4595624 +1    13    12    11
  H(HETATM   25 2H9  HET A   1)   1.12176082 +1  110.7677506 +1 -113.7783264 +1     6     1     2
  H(HETATM   26 2H6  HET A   1)   0.98893972 +1  113.3708612 +1 -176.8249109 +1    16    14    12
 
 TIME=     0.02
  REACTANTS AND PRODUCTS SWAPPED AROUND
 *+*+*+*+*+*+*+*+*+*+*+*+*+*+*+*+*+*+*+*+*+*+*+*+*+*+*+*+*+*+*+*+*+*+*+*+*+*+*+*+
            BAR SHORTENED BY       1.000 PERCENT
 GRADIENT CRITERION IN FLEPO =     2.282
           THERE HAVE BEEN 3 ATTEMPTS TO REDUCE THE GRADIENT.
           DURING THESE ATTEMPTS THE ENERGY DROPPED BY LESS THAN 0.3 KCAL/MOLE
           FURTHER CALCULATION IS NOT JUSTIFIED AT THIS TIME.
           TO CONTINUE, START AGAIN WITH THE WORD "PRECISE"


          FOR POINT   10 FIRST  STRUCTURE
 DISTANCE A - B      2.992137
 HEAT             -245.783209
 GRADIENT NORM      11.429297
 DIRECTION COSINE    0.207097

 Move up activation barrier to near to the transition-state geometry

  C(HETATM    1  C1  HET A   1)   0.00000000 +0    0.0000000 +0    0.0000000 +0
  C(HETATM    2  C2  HET A   1)   1.40690043 +1    0.0000000 +0    0.0000000 +0     1     0     0
  C(HETATM    3  C3  HET A   1)   1.38203072 +1  120.4536152 +1    0.0000000 +0     2     1     0
  C(HETATM    4  C4  HET A   1)   1.40436645 +1  120.3154150 +1   -0.3059935 +1     3     2     1
  C(HETATM    5  C5  HET A   1)   1.38337974 +1  120.6112542 +1   -2.4597307 +1     4     3     2
  C(HETATM    6  C6  HET A   1)   1.40436211 +1  118.7146369 +1    3.7541222 +1     5     4     3
  C(HETATM    7  C7  HET A   1)   1.45075186 +1  122.0694609 +1 -178.8346177 +1     1     2     3
  O(HETATM    8  O1  HET A   1)   1.21961612 +1  126.6638507 +1  175.8625766 +1     7     1     2
  O(HETATM    9  O2  HET A   1)   1.35316539 +1  113.5527125 +1   -4.2440596 +1     7     1     2
  O(HETATM   10  O3  HET A   1)   1.34350938 +1  115.7576444 +1  177.7350981 +1     6     5     4
  O(HETATM   11  O4  HET A   1)   2.68057649 +1   87.9049256 +1  122.9553731 +1     5     4     3
  C(HETATM   12  C8  HET A   1)   1.20009957 +1  105.0998296 +1  179.4822221 +1    11     5     4
  C(HETATM   13  C9  HET A   1)   1.48076849 +1  126.6966047 +1   34.5742459 +1    12    11     5
  C(HETATM   14  C10 HET A   1)   1.52755586 +1  118.5771571 +1 -143.2904664 +1    12    11     5
  O(HETATM   15  O5  HET A   1)   1.19637846 +1  127.4283397 +1   79.4870968 +1    14    12    11
  O(HETATM   16  O6  HET A   1)   1.35370778 +1  109.4999353 +1 -101.8625572 +1    14    12    11
  H(HETATM   17 1H2  HET A   1)   1.09179845 +1  118.8287364 +1 -179.8993521 +1     2     1     3
  H(HETATM   18 1H3  HET A   1)   1.08364407 +1  120.2896040 +1  179.8041742 +1     3     2     1
  H(HETATM   19  H4  HET A   1)   1.09330474 +1  119.7591612 +1  177.2612234 +1     4     3     2
  H(HETATM   20  H5  HET A   1)   1.08750313 +1  121.6230571 +1 -176.6264417 +1     5     4     3
  H(HETATM   21 1H6  HET A   1)   1.10855152 +1  111.5500484 +1  -78.3897840 +1    13    12    11
  H(HETATM   22 2H2  HET A   1)   0.99423705 +1  112.8556809 +1  179.9417513 +1     9     7     1
  H(HETATM   23 2H3  HET A   1)   1.01552466 +1  111.6667017 +1 -179.8032909 +1    10     6     5
  H(HETATM   24 1H9  HET A   1)   1.10396626 +1  114.1504996 +1  161.1933955 +1    13    12    11
  H(HETATM   25 2H9  HET A   1)   1.10595933 +1  110.8864199 +1   38.9540440 +1    13    12    11
  H(HETATM   26 2H6  HET A   1)   0.99094268 +1  113.7912005 +1  177.9696131 +1    16    14    12
 
 *+*+*+*+*+*+*+*+*+*+*+*+*+*+*+*+*+*+*+*+*+*+*+*+*+*+*+*+*+*+*+*+*+*+*+*+*+*+*+*+
            BAR SHORTENED BY       1.000 PERCENT
 GRADIENT CRITERION IN FLEPO =     8.429


          FOR POINT   11 FIRST  STRUCTURE
 DISTANCE A - B      2.962215
 HEAT             -245.652681
 GRADIENT NORM      12.215614
 DIRECTION COSINE   -0.233495

 Move up activation barrier to near to the transition-state geometry

  C(HETATM    1  C1  HET A   1)   0.00000000 +0    0.0000000 +0    0.0000000 +0
  C(HETATM    2  C2  HET A   1)   1.40289946 +1    0.0000000 +0    0.0000000 +0     1     0     0
  C(HETATM    3  C3  HET A   1)   1.38603213 +1  120.4180234 +1    0.0000000 +0     2     1     0
  C(HETATM    4  C4  HET A   1)   1.40405164 +1  120.3213994 +1   -0.6860368 +1     3     2     1
  C(HETATM    5  C5  HET A   1)   1.38477349 +1  120.3769280 +1   -2.2314545 +1     4     3     2
  C(HETATM    6  C6  HET A   1)   1.40247873 +1  118.8288732 +1    3.9048307 +1     5     4     3
  C(HETATM    7  C7  HET A   1)   1.45449617 +1  121.9335812 +1 -178.8867214 +1     1     2     3
  O(HETATM    8  O1  HET A   1)   1.21690461 +1  126.4937130 +1  176.1112215 +1     7     1     2
  O(HETATM    9  O2  HET A   1)   1.35006268 +1  113.5087267 +1   -3.6720831 +1     7     1     2
  O(HETATM   10  O3  HET A   1)   1.34623272 +1  115.7002825 +1  178.4074193 +1     6     5     4
  O(HETATM   11  O4  HET A   1)   2.66602932 +1   87.9955504 +1  122.9475634 +1     5     4     3
  C(HETATM   12  C8  HET A   1)   1.19764684 +1  105.4745336 +1  179.0581544 +1    11     5     4
  C(HETATM   13  C9  HET A   1)   1.47973025 +1  126.3883009 +1   34.5474317 +1    12    11     5
  C(HETATM   14  C10 HET A   1)   1.52352053 +1  118.7163835 +1 -143.5333651 +1    12    11     5
  O(HETATM   15  O5  HET A   1)   1.19746744 +1  127.2155258 +1   79.1719160 +1    14    12    11
  O(HETATM   16  O6  HET A   1)   1.34887009 +1  109.7921604 +1 -102.2463689 +1    14    12    11
  H(HETATM   17 1H2  HET A   1)   1.09288047 +1  119.1486707 +1 -179.8183442 +1     2     1     3
  H(HETATM   18 1H3  HET A   1)   1.08699894 +1  120.2357338 +1  179.6541086 +1     3     2     1
  H(HETATM   19  H4  HET A   1)   1.09273254 +1  119.6385495 +1  177.2411473 +1     4     3     2
  H(HETATM   20  H5  HET A   1)   1.08759518 +1  121.4769608 +1 -175.7929231 +1     5     4     3
  H(HETATM   21 1H6  HET A   1)   1.10765632 +1  111.9721528 +1  -78.0857792 +1    13    12    11
  H(HETATM   22 2H2  HET A   1)   0.99352317 +1  112.7452854 +1  179.9501531 +1     9     7     1
  H(HETATM   23 2H3  HET A   1)   1.01080548 +1  111.6467654 +1  179.9830348 +1    10     6     5
  H(HETATM   24 1H9  HET A   1)   1.09601128 +1  114.0296573 +1  161.6121614 +1    13    12    11
  H(HETATM   25 2H9  HET A   1)   1.10646020 +1  110.8779241 +1   38.7841773 +1    13    12    11
  H(HETATM   26 2H6  HET A   1)   0.99037556 +1  114.1318822 +1  177.8600921 +1    16    14    12
 
 TIME=     0.25
  REACTANTS AND PRODUCTS SWAPPED AROUND
 *+*+*+*+*+*+*+*+*+*+*+*+*+*+*+*+*+*+*+*+*+*+*+*+*+*+*+*+*+*+*+*+*+*+*+*+*+*+*+*+
            BAR SHORTENED BY       1.000 PERCENT
 GRADIENT CRITERION IN FLEPO =     9.216
 

                    SINCE COS WAS JUST RESET,THE SEARCH IS BEING ENDED


          FOR POINT   12 SECOND STRUCTURE
 DISTANCE A - B      2.932593
 HEAT             -212.335864
 GRADIENT NORM      19.325622
 DIRECTION COSINE    0.205699

 Move up activation barrier to near to the transition-state geometry

  C(HETATM    1  C1  HET A   1)   0.00000000 +0    0.0000000 +0    0.0000000 +0
  C(HETATM    2  C2  HET A   1)   1.34478487 +1    0.0000000 +0    0.0000000 +0     1     0     0
  C(HETATM    3  C3  HET A   1)   1.45132310 +1  120.7892417 +1    0.0000000 +0     2     1     0
  C(HETATM    4  C4  HET A   1)   1.34109828 +1  121.3416330 +1   -4.9826798 +1     3     2     1
  C(HETATM    5  C5  HET A   1)   1.50243893 +1  122.9230245 +1   -2.4973284 +1     4     3     2
  C(HETATM    6  C6  HET A   1)   1.50729404 +1  123.1778773 +1   -0.2068020 +1     1     2     3
  C(HETATM    7  C7  HET A   1)   1.46669094 +1  122.3734146 +1  178.3051905 +1     1     2     3
  O(HETATM    8  O1  HET A   1)   1.21112480 +1  127.5868583 +1 -164.3218720 +1     7     1     2
  O(HETATM    9  O2  HET A   1)   1.35547349 +1  112.4121299 +1   15.0508043 +1     7     1     2
  O(HETATM   10  O3  HET A   1)   1.41594513 +1  109.3819327 +1  127.2748381 +1     6     1     2
  O(HETATM   11  O4  HET A   1)   1.44049900 +1  102.5818363 +1  133.1198585 +1     5     4     3
  C(HETATM   12  C8  HET A   1)   1.36373692 +1  118.0210459 +1  162.4194236 +1    11     5     4
  C(HETATM   13  C9  HET A   1)   1.32394697 +1  130.4946980 +1   24.6900337 +1    12    11     5
  C(HETATM   14  C10 HET A   1)   1.48944384 +1  108.4474043 +1 -155.4477924 +1    12    11     5
  O(HETATM   15  O5  HET A   1)   1.20073845 +1  128.6648319 +1   56.2727067 +1    14    12    11
  O(HETATM   16  O6  HET A   1)   1.36128606 +1  110.0580601 +1 -128.3775698 +1    14    12    11
  H(HETATM   17 1H2  HET A   1)   1.09620993 +1  121.7137427 +1  179.4287423 +1     2     1     3
  H(HETATM   18 1H3  HET A   1)   1.08879283 +1  116.6509759 +1  174.5532204 +1     3     2     1
  H(HETATM   19  H4  HET A   1)   1.09226599 +1  122.5181051 +1  178.0839520 +1     4     3     2
  H(HETATM   20  H5  HET A   1)   1.12232858 +1  110.4540646 +1 -110.7493710 +1     5     4     3
  H(HETATM   21 1H6  HET A   1)   1.08144086 +1  125.9475980 +1   -6.8495117 +1    13    12    11
  H(HETATM   22 2H2  HET A   1)   0.99642424 +1  113.0525871 +1 -178.8361822 +1     9     7     1
  H(HETATM   23 2H3  HET A   1)   0.98512223 +1  110.3292549 +1   50.6460135 +1    10     6     1
  H(HETATM   24 1H9  HET A   1)   1.08164343 +1  122.4680503 +1  173.2848792 +1    13    12    11
  H(HETATM   25 2H9  HET A   1)   1.12834005 +1  111.4743682 +1 -113.5576282 +1     6     1     2
  H(HETATM   26 2H6  HET A   1)   0.99048188 +1  113.4225383 +1 -176.7200005 +1    16    14    12
 
 TIME=     0.09
  REACTANTS AND PRODUCTS SWAPPED AROUND
 *+*+*+*+*+*+*+*+*+*+*+*+*+*+*+*+*+*+*+*+*+*+*+*+*+*+*+*+*+*+*+*+*+*+*+*+*+*+*+*+
            BAR SHORTENED BY       1.000 PERCENT
 GRADIENT CRITERION IN FLEPO =    10.000


          FOR POINT   13 FIRST  STRUCTURE
 DISTANCE A - B      2.903267
 HEAT             -245.374702
 GRADIENT NORM      16.957497
 DIRECTION COSINE    0.093255

 Move up activation barrier to near to the transition-state geometry

  C(HETATM    1  C1  HET A   1)   0.00000000 +0    0.0000000 +0    0.0000000 +0
  C(HETATM    2  C2  HET A   1)   1.40632264 +1    0.0000000 +0    0.0000000 +0     1     0     0
  C(HETATM    3  C3  HET A   1)   1.38238257 +1  120.4266074 +1    0.0000000 +0     2     1     0
  C(HETATM    4  C4  HET A   1)   1.40598478 +1  120.3804255 +1   -0.5068962 +1     3     2     1
  C(HETATM    5  C5  HET A   1)   1.38232032 +1  120.3994896 +1   -2.8561881 +1     4     3     2
  C(HETATM    6  C6  HET A   1)   1.40572233 +1  118.4241792 +1    2.3934884 +1     1     2     3
  C(HETATM    7  C7  HET A   1)   1.45107551 +1  122.0091396 +1 -179.0903955 +1     1     2     3
  O(HETATM    8  O1  HET A   1)   1.21973417 +1  126.6783613 +1  176.5878982 +1     7     1     2
  O(HETATM    9  O2  HET A   1)   1.35504670 +1  113.5668436 +1   -3.2701540 +1     7     1     2
  O(HETATM   10  O3  HET A   1)   1.34136845 +1  122.9562866 +1  178.6517747 +1     6     1     2
  O(HETATM   11  O4  HET A   1)   2.65080373 +1   87.9705014 +1  123.3186465 +1     5     4     3
  C(HETATM   12  C8  HET A   1)   1.19954669 +1  105.6804613 +1  178.9486168 +1    11     5     4
  C(HETATM   13  C9  HET A   1)   1.47792561 +1  126.3320464 +1   34.6098648 +1    12    11     5
  C(HETATM   14  C10 HET A   1)   1.52306814 +1  118.6594242 +1 -143.7185669 +1    12    11     5
  O(HETATM   15  O5  HET A   1)   1.19962967 +1  126.9996281 +1   79.1401087 +1    14    12    11
  O(HETATM   16  O6  HET A   1)   1.34831942 +1  110.0563722 +1 -102.4260522 +1    14    12    11
  H(HETATM   17 1H2  HET A   1)   1.09273679 +1  119.0797583 +1 -179.5569487 +1     2     1     3
  H(HETATM   18 1H3  HET A   1)   1.08865665 +1  120.3172003 +1  179.6101309 +1     3     2     1
  H(HETATM   19  H4  HET A   1)   1.09468314 +1  119.7263579 +1  177.4759480 +1     4     3     2
  H(HETATM   20  H5  HET A   1)   1.08742343 +1  121.6933502 +1 -174.9278168 +1     5     4     3
  H(HETATM   21 1H6  HET A   1)   1.10696974 +1  112.1281696 +1  -77.7061198 +1    13    12    11
  H(HETATM   22 2H2  HET A   1)   0.99142762 +1  112.8360923 +1 -179.7502730 +1     9     7     1
  H(HETATM   23 2H3  HET A   1)   1.01225455 +1  111.3815187 +1    0.1683512 +1    10     6     1
  H(HETATM   24 1H9  HET A   1)   1.09783334 +1  113.7090770 +1  161.8405704 +1    13    12    11
  H(HETATM   25 2H9  HET A   1)   1.11780380 +1  110.2352655 +1   38.3836329 +1    13    12    11
  H(HETATM   26 2H6  HET A   1)   0.99096664 +1  114.0730446 +1  177.8386202 +1    16    14    12
 
 *+*+*+*+*+*+*+*+*+*+*+*+*+*+*+*+*+*+*+*+*+*+*+*+*+*+*+*+*+*+*+*+*+*+*+*+*+*+*+*+
            BAR SHORTENED BY       1.000 PERCENT
 GRADIENT CRITERION IN FLEPO =    10.000


          FOR POINT   14 FIRST  STRUCTURE
 DISTANCE A - B      2.874235
 HEAT             -245.185088
 GRADIENT NORM      22.921944
 DIRECTION COSINE    0.547304

 Move up activation barrier to near to the transition-state geometry

  C(HETATM    1  C1  HET A   1)   0.00000000 +0    0.0000000 +0    0.0000000 +0
  C(HETATM    2  C2  HET A   1)   1.40530589 +1    0.0000000 +0    0.0000000 +0     1     0     0
  C(HETATM    3  C3  HET A   1)   1.38362428 +1  120.6272908 +1    0.0000000 +0     2     1     0
  C(HETATM    4  C4  HET A   1)   1.40506256 +1  120.1501466 +1   -0.8988759 +1     3     2     1
  C(HETATM    5  C5  HET A   1)   1.38509490 +1  120.3558258 +1   -2.4212448 +1     4     3     2
  C(HETATM    6  C6  HET A   1)   1.40213937 +1  118.3359754 +1    2.3613088 +1     1     2     3
  C(HETATM    7  C7  HET A   1)   1.45421049 +1  121.8680906 +1 -178.7358780 +1     1     2     3
  O(HETATM    8  O1  HET A   1)   1.21730134 +1  126.4032233 +1  176.8840005 +1     7     1     2
  O(HETATM    9  O2  HET A   1)   1.35016203 +1  113.6093497 +1   -3.3458465 +1     7     1     2
  O(HETATM   10  O3  HET A   1)   1.34633316 +1  122.8370817 +1  178.0040439 +1     6     1     2
  O(HETATM   11  O4  HET A   1)   2.63871007 +1   88.0668983 +1  123.1572443 +1     5     4     3
  C(HETATM   12  C8  HET A   1)   1.19985583 +1  105.8491517 +1  178.4670681 +1    11     5     4
  C(HETATM   13  C9  HET A   1)   1.47879955 +1  126.1589707 +1   34.7744677 +1    12    11     5
  C(HETATM   14  C10 HET A   1)   1.51755757 +1  118.6531343 +1 -143.9049456 +1    12    11     5
  O(HETATM   15  O5  HET A   1)   1.20031217 +1  127.2007262 +1   79.1325790 +1    14    12    11
  O(HETATM   16  O6  HET A   1)   1.35317296 +1  110.2665182 +1 -102.6722599 +1    14    12    11
  H(HETATM   17 1H2  HET A   1)   1.09553622 +1  119.1748915 +1 -179.6446304 +1     2     1     3
  H(HETATM   18 1H3  HET A   1)   1.08476414 +1  120.5918158 +1  179.7758290 +1     3     2     1
  H(HETATM   19  H4  HET A   1)   1.09119821 +1  119.6984416 +1  177.5455268 +1     4     3     2
  H(HETATM   20  H5  HET A   1)   1.08976162 +1  121.5440011 +1 -174.5246256 +1     5     4     3
  H(HETATM   21 1H6  HET A   1)   1.10479995 +1  112.1890680 +1  -77.5734522 +1    13    12    11
  H(HETATM   22 2H2  HET A   1)   0.99317862 +1  113.0728382 +1 -179.2283131 +1     9     7     1
  H(HETATM   23 2H3  HET A   1)   1.01034041 +1  111.2858559 +1    0.5257453 +1    10     6     1
  H(HETATM   24 1H9  HET A   1)   1.09885885 +1  113.5851530 +1  162.0638853 +1    13    12    11
  H(HETATM   25 2H9  HET A   1)   1.12671582 +1  109.7852854 +1   37.9164148 +1    13    12    11
  H(HETATM   26 2H6  HET A   1)   0.98944357 +1  114.0570393 +1  178.1450293 +1    16    14    12
 
 *+*+*+*+*+*+*+*+*+*+*+*+*+*+*+*+*+*+*+*+*+*+*+*+*+*+*+*+*+*+*+*+*+*+*+*+*+*+*+*+
            BAR SHORTENED BY       1.000 PERCENT
 GRADIENT CRITERION IN FLEPO =    10.000


          FOR POINT   15 FIRST  STRUCTURE
 DISTANCE A - B      2.845492
 HEAT             -245.059615
 GRADIENT NORM      15.312263
 DIRECTION COSINE    0.423273

 Move up activation barrier to near to the transition-state geometry

  C(HETATM    1  C1  HET A   1)   0.00000000 +0    0.0000000 +0    0.0000000 +0
  C(HETATM    2  C2  HET A   1)   1.40307742 +1    0.0000000 +0    0.0000000 +0     1     0     0
  C(HETATM    3  C3  HET A   1)   1.38580359 +1  120.5492105 +1    0.0000000 +0     2     1     0
  C(HETATM    4  C4  HET A   1)   1.40312354 +1  120.1869953 +1   -1.2581288 +1     3     2     1
  C(HETATM    5  C5  HET A   1)   1.38583154 +1  120.4410452 +1   -3.0423359 +1     4     3     2
  C(HETATM    6  C6  HET A   1)   1.40323259 +1  118.8358107 +1    5.3150732 +1     5     4     3
  C(HETATM    7  C7  HET A   1)   1.45321453 +1  122.0780903 +1 -178.8674481 +1     1     2     3
  O(HETATM    8  O1  HET A   1)   1.21673996 +1  126.7258864 +1  177.6236385 +1     7     1     2
  O(HETATM    9  O2  HET A   1)   1.35285755 +1  113.1924908 +1   -2.6174735 +1     7     1     2
  O(HETATM   10  O3  HET A   1)   1.34420095 +1  115.7372630 +1  178.5017235 +1     6     5     4
  O(HETATM   11  O4  HET A   1)   2.62496023 +1   87.8319089 +1  123.4151551 +1     5     4     3
  C(HETATM   12  C8  HET A   1)   1.20084077 +1  106.2645505 +1  178.2984608 +1    11     5     4
  C(HETATM   13  C9  HET A   1)   1.48211781 +1  125.3648535 +1   34.8066807 +1    12    11     5
  C(HETATM   14  C10 HET A   1)   1.52485669 +1  118.8882309 +1 -143.5751006 +1    12    11     5
  O(HETATM   15  O5  HET A   1)   1.19807861 +1  127.2796800 +1   77.7823130 +1    14    12    11
  O(HETATM   16  O6  HET A   1)   1.34973599 +1  109.9200189 +1 -103.0870339 +1    14    12    11
  H(HETATM   17 1H2  HET A   1)   1.09137663 +1  119.2597517 +1 -179.4382500 +1     2     1     3
  H(HETATM   18 1H3  HET A   1)   1.08718970 +1  120.4571397 +1  179.6487314 +1     3     2     1
  H(HETATM   19  H4  HET A   1)   1.09335796 +1  119.5662369 +1  177.6731045 +1     4     3     2
  H(HETATM   20  H5  HET A   1)   1.08482331 +1  121.4553151 +1 -173.5312277 +1     5     4     3
  H(HETATM   21 1H6  HET A   1)   1.11261962 +1  112.3223502 +1  -77.6537726 +1    13    12    11
  H(HETATM   22 2H2  HET A   1)   0.99144794 +1  112.9385376 +1 -178.8750956 +1     9     7     1
  H(HETATM   23 2H3  HET A   1)   1.01070697 +1  111.2790817 +1  178.0709420 +1    10     6     5
  H(HETATM   24 1H9  HET A   1)   1.10280229 +1  112.7330804 +1  162.7540626 +1    13    12    11
  H(HETATM   25 2H9  HET A   1)   1.11361988 +1  109.8604070 +1   38.1619961 +1    13    12    11
  H(HETATM   26 2H6  HET A   1)   0.99111435 +1  113.8880253 +1  177.9963409 +1    16    14    12
 
 TIME=     0.22
  REACTANTS AND PRODUCTS SWAPPED AROUND
 *+*+*+*+*+*+*+*+*+*+*+*+*+*+*+*+*+*+*+*+*+*+*+*+*+*+*+*+*+*+*+*+*+*+*+*+*+*+*+*+
            BAR SHORTENED BY       0.000 PERCENT
 GRADIENT CRITERION IN FLEPO =    10.000


          FOR POINT   16 SECOND STRUCTURE
 DISTANCE A - B      2.845492
 HEAT             -212.509483
 GRADIENT NORM      11.396714
 DIRECTION COSINE    0.207543

 Move up activation barrier to near to the transition-state geometry

  C(HETATM    1  C1  HET A   1)   0.00000000 +0    0.0000000 +0    0.0000000 +0
  C(HETATM    2  C2  HET A   1)   1.34454947 +1    0.0000000 +0    0.0000000 +0     1     0     0
  C(HETATM    3  C3  HET A   1)   1.45213396 +1  120.7478580 +1    0.0000000 +0     2     1     0
  C(HETATM    4  C4  HET A   1)   1.34092947 +1  121.2916691 +1   -5.1589261 +1     3     2     1
  C(HETATM    5  C5  HET A   1)   1.49947501 +1  122.9042309 +1   -2.1270177 +1     4     3     2
  C(HETATM    6  C6  HET A   1)   1.50753520 +1  123.1116509 +1   -0.1617911 +1     1     2     3
  C(HETATM    7  C7  HET A   1)   1.46567415 +1  122.1076841 +1  178.1151931 +1     1     2     3
  O(HETATM    8  O1  HET A   1)   1.21161696 +1  127.4200620 +1 -164.3345596 +1     7     1     2
  O(HETATM    9  O2  HET A   1)   1.35573160 +1  112.7231287 +1   15.2528101 +1     7     1     2
  O(HETATM   10  O3  HET A   1)   1.41675634 +1  109.1654783 +1  127.1707010 +1     6     1     2
  O(HETATM   11  O4  HET A   1)   1.43735442 +1  102.6515823 +1  132.9309744 +1     5     4     3
  C(HETATM   12  C8  HET A   1)   1.36276836 +1  118.2637079 +1  162.1690661 +1    11     5     4
  C(HETATM   13  C9  HET A   1)   1.33066030 +1  130.2907161 +1   24.6488389 +1    12    11     5
  C(HETATM   14  C10 HET A   1)   1.49097815 +1  108.8077651 +1 -155.4425209 +1    12    11     5
  O(HETATM   15  O5  HET A   1)   1.19723114 +1  128.4987246 +1   56.3070272 +1    14    12    11
  O(HETATM   16  O6  HET A   1)   1.35713462 +1  110.0051116 +1 -128.2886088 +1    14    12    11
  H(HETATM   17 1H2  HET A   1)   1.09791139 +1  122.0128049 +1  179.4712039 +1     2     1     3
  H(HETATM   18 1H3  HET A   1)   1.09339053 +1  116.6842836 +1  174.6380845 +1     3     2     1
  H(HETATM   19  H4  HET A   1)   1.09445950 +1  122.4118186 +1  178.2513141 +1     4     3     2
  H(HETATM   20  H5  HET A   1)   1.12264490 +1  110.2626844 +1 -111.0767536 +1     5     4     3
  H(HETATM   21 1H6  HET A   1)   1.08435039 +1  125.1478616 +1   -6.3490691 +1    13    12    11
  H(HETATM   22 2H2  HET A   1)   0.99145038 +1  113.0291954 +1 -179.2103702 +1     9     7     1
  H(HETATM   23 2H3  HET A   1)   0.98844846 +1  110.4715423 +1   50.9087580 +1    10     6     1
  H(HETATM   24 1H9  HET A   1)   1.08200266 +1  122.3436402 +1  173.1248080 +1    13    12    11
  H(HETATM   25 2H9  HET A   1)   1.12357972 +1  111.2109024 +1 -113.6542552 +1     6     1     2
  H(HETATM   26 2H6  HET A   1)   0.99072028 +1  113.2901178 +1 -176.8413101 +1    16    14    12
 
 TIME=     0.07
  REACTANTS AND PRODUCTS SWAPPED AROUND
 *+*+*+*+*+*+*+*+*+*+*+*+*+*+*+*+*+*+*+*+*+*+*+*+*+*+*+*+*+*+*+*+*+*+*+*+*+*+*+*+
            BAR SHORTENED BY       1.000 PERCENT
 GRADIENT CRITERION IN FLEPO =     8.397
           THERE HAVE BEEN 3 ATTEMPTS TO REDUCE THE GRADIENT.
           DURING THESE ATTEMPTS THE ENERGY DROPPED BY LESS THAN 0.3 KCAL/MOLE
           FURTHER CALCULATION IS NOT JUSTIFIED AT THIS TIME.
           TO CONTINUE, START AGAIN WITH THE WORD "PRECISE"


          FOR POINT   17 FIRST  STRUCTURE
 DISTANCE A - B      2.817037
 HEAT             -244.798054
 GRADIENT NORM      20.704670
 DIRECTION COSINE   -0.017538

 Move up activation barrier to near to the transition-state geometry

  C(HETATM    1  C1  HET A   1)   0.00000000 +0    0.0000000 +0    0.0000000 +0
  C(HETATM    2  C2  HET A   1)   1.40321021 +1    0.0000000 +0    0.0000000 +0     1     0     0
  C(HETATM    3  C3  HET A   1)   1.38562181 +1  120.5471511 +1    0.0000000 +0     2     1     0
  C(HETATM    4  C4  HET A   1)   1.40358660 +1  120.3374308 +1   -1.3224628 +1     3     2     1
  C(HETATM    5  C5  HET A   1)   1.38689312 +1  120.2555358 +1   -2.9154126 +1     4     3     2
  C(HETATM    6  C6  HET A   1)   1.40448584 +1  118.9042274 +1    5.2801404 +1     5     4     3
  C(HETATM    7  C7  HET A   1)   1.45270242 +1  122.0833728 +1 -178.9023617 +1     1     2     3
  O(HETATM    8  O1  HET A   1)   1.21749972 +1  126.7099519 +1  177.9096102 +1     7     1     2
  O(HETATM    9  O2  HET A   1)   1.35249438 +1  113.2256160 +1   -2.4110369 +1     7     1     2
  O(HETATM   10  O3  HET A   1)   1.34337419 +1  115.7217007 +1  179.2386891 +1     6     5     4
  O(HETATM   11  O4  HET A   1)   2.60724176 +1   88.0591668 +1  123.4440757 +1     5     4     3
  C(HETATM   12  C8  HET A   1)   1.20146265 +1  106.2757795 +1  177.8531242 +1    11     5     4
  C(HETATM   13  C9  HET A   1)   1.47517999 +1  125.1754613 +1   35.0924261 +1    12    11     5
  C(HETATM   14  C10 HET A   1)   1.52387186 +1  118.6391064 +1 -144.0500873 +1    12    11     5
  O(HETATM   15  O5  HET A   1)   1.19430534 +1  126.9542300 +1   77.6719119 +1    14    12    11
  O(HETATM   16  O6  HET A   1)   1.34905564 +1  110.1723259 +1 -103.2062709 +1    14    12    11
  H(HETATM   17 1H2  HET A   1)   1.09569955 +1  119.3765053 +1 -179.1511103 +1     2     1     3
  H(HETATM   18 1H3  HET A   1)   1.08750890 +1  120.4250503 +1  179.6905211 +1     3     2     1
  H(HETATM   19  H4  HET A   1)   1.09171827 +1  119.7276273 +1  177.5774477 +1     4     3     2
  H(HETATM   20  H5  HET A   1)   1.08339955 +1  121.4549427 +1 -172.6807423 +1     5     4     3
  H(HETATM   21 1H6  HET A   1)   1.10698514 +1  112.7447198 +1  -78.0100039 +1    13    12    11
  H(HETATM   22 2H2  HET A   1)   0.99215226 +1  112.9786771 +1 -178.8093785 +1     9     7     1
  H(HETATM   23 2H3  HET A   1)   1.01194092 +1  111.4260592 +1  177.8998821 +1    10     6     5
  H(HETATM   24 1H9  HET A   1)   1.09861277 +1  112.6721915 +1  162.6441125 +1    13    12    11
  H(HETATM   25 2H9  HET A   1)   1.11036699 +1  110.2790763 +1   38.0329977 +1    13    12    11
  H(HETATM   26 2H6  HET A   1)   0.99196236 +1  113.8574637 +1  178.0242819 +1    16    14    12
 
 TIME=     0.09
  REACTANTS AND PRODUCTS SWAPPED AROUND
 *+*+*+*+*+*+*+*+*+*+*+*+*+*+*+*+*+*+*+*+*+*+*+*+*+*+*+*+*+*+*+*+*+*+*+*+*+*+*+*+
            BAR SHORTENED BY       1.000 PERCENT
 GRADIENT CRITERION IN FLEPO =    10.000
 

                    SINCE COS WAS JUST RESET,THE SEARCH IS BEING ENDED


          FOR POINT   18 SECOND STRUCTURE
 DISTANCE A - B      2.788867
 HEAT             -212.204405
 GRADIENT NORM      21.252669
 DIRECTION COSINE   -0.029525

 Move up activation barrier to near to the transition-state geometry

  C(HETATM    1  C1  HET A   1)   0.00000000 +0    0.0000000 +0    0.0000000 +0
  C(HETATM    2  C2  HET A   1)   1.34484372 +1    0.0000000 +0    0.0000000 +0     1     0     0
  C(HETATM    3  C3  HET A   1)   1.45039257 +1  120.8337780 +1    0.0000000 +0     2     1     0
  C(HETATM    4  C4  HET A   1)   1.34116619 +1  121.2795236 +1   -4.7627940 +1     3     2     1
  C(HETATM    5  C5  HET A   1)   1.50103042 +1  123.0035293 +1   -2.1301156 +1     4     3     2
  C(HETATM    6  C6  HET A   1)   1.50971379 +1  123.1517078 +1   -0.7167165 +1     1     2     3
  C(HETATM    7  C7  HET A   1)   1.46876573 +1  122.3652687 +1  177.9876184 +1     1     2     3
  O(HETATM    8  O1  HET A   1)   1.20627366 +1  127.5850375 +1 -164.5466205 +1     7     1     2
  O(HETATM    9  O2  HET A   1)   1.35843977 +1  112.3611506 +1   14.8092706 +1     7     1     2
  O(HETATM   10  O3  HET A   1)   1.41640356 +1  109.3310696 +1  127.4721652 +1     6     1     2
  O(HETATM   11  O4  HET A   1)   1.44140449 +1  102.7296406 +1  132.6033902 +1     5     4     3
  C(HETATM   12  C8  HET A   1)   1.36109071 +1  118.1385108 +1  162.2663394 +1    11     5     4
  C(HETATM   13  C9  HET A   1)   1.32619393 +1  130.3504774 +1   24.8943865 +1    12    11     5
  C(HETATM   14  C10 HET A   1)   1.48999417 +1  108.9172488 +1 -155.2246552 +1    12    11     5
  O(HETATM   15  O5  HET A   1)   1.19876786 +1  128.5128204 +1   56.6793364 +1    14    12    11
  O(HETATM   16  O6  HET A   1)   1.36064148 +1  110.2672480 +1 -128.1352753 +1    14    12    11
  H(HETATM   17 1H2  HET A   1)   1.09486400 +1  121.6628218 +1  179.8398569 +1     2     1     3
  H(HETATM   18 1H3  HET A   1)   1.08805248 +1  116.7497624 +1  174.6235184 +1     3     2     1
  H(HETATM   19  H4  HET A   1)   1.09073275 +1  122.4324925 +1  177.9911467 +1     4     3     2
  H(HETATM   20  H5  HET A   1)   1.12287613 +1  110.3675518 +1 -111.3763272 +1     5     4     3
  H(HETATM   21 1H6  HET A   1)   1.08018569 +1  125.4151662 +1   -7.0103306 +1    13    12    11
  H(HETATM   22 2H2  HET A   1)   0.99514767 +1  112.8084310 +1 -179.2287075 +1     9     7     1
  H(HETATM   23 2H3  HET A   1)   0.98927721 +1  110.1912635 +1   50.7977247 +1    10     6     1
  H(HETATM   24 1H9  HET A   1)   1.08270600 +1  122.4931971 +1  172.8394908 +1    13    12    11
  H(HETATM   25 2H9  HET A   1)   1.13027181 +1  111.9230778 +1 -113.2578220 +1     6     1     2
  H(HETATM   26 2H6  HET A   1)   0.99230300 +1  113.3338968 +1 -176.8684892 +1    16    14    12
 
 TIME=     0.08
  REACTANTS AND PRODUCTS SWAPPED AROUND
 *+*+*+*+*+*+*+*+*+*+*+*+*+*+*+*+*+*+*+*+*+*+*+*+*+*+*+*+*+*+*+*+*+*+*+*+*+*+*+*+
            BAR SHORTENED BY       1.000 PERCENT
 GRADIENT CRITERION IN FLEPO =    10.000


          FOR POINT   19 FIRST  STRUCTURE
 DISTANCE A - B      2.760978
 HEAT             -244.460936
 GRADIENT NORM      21.303000
 DIRECTION COSINE   -0.150573

 Move up activation barrier to near to the transition-state geometry

  C(HETATM    1  C1  HET A   1)   0.00000000 +0    0.0000000 +0    0.0000000 +0
  C(HETATM    2  C2  HET A   1)   1.40355372 +1    0.0000000 +0    0.0000000 +0     1     0     0
  C(HETATM    3  C3  HET A   1)   1.38483913 +1  120.4815545 +1    0.0000000 +0     2     1     0
  C(HETATM    4  C4  HET A   1)   1.40345866 +1  120.3177117 +1   -1.5065680 +1     3     2     1
  C(HETATM    5  C5  HET A   1)   1.38444775 +1  120.3091328 +1   -3.0865298 +1     4     3     2
  C(HETATM    6  C6  HET A   1)   1.40471179 +1  118.4115465 +1    3.6268138 +1     1     2     3
  C(HETATM    7  C7  HET A   1)   1.45285640 +1  122.0506009 +1 -179.1078730 +1     1     2     3
  O(HETATM    8  O1  HET A   1)   1.21400282 +1  126.4303921 +1  178.4637265 +1     7     1     2
  O(HETATM    9  O2  HET A   1)   1.35195229 +1  113.2737278 +1   -1.9315313 +1     7     1     2
  O(HETATM   10  O3  HET A   1)   1.34256270 +1  122.9441172 +1  176.1035919 +1     6     1     2
  O(HETATM   11  O4  HET A   1)   2.59753337 +1   88.1052699 +1  123.6264194 +1     5     4     3
  C(HETATM   12  C8  HET A   1)   1.19970267 +1  106.5013652 +1  177.7205977 +1    11     5     4
  C(HETATM   13  C9  HET A   1)   1.47851450 +1  125.1994390 +1   34.9837679 +1    12    11     5
  C(HETATM   14  C10 HET A   1)   1.52120035 +1  118.6711031 +1 -144.2379558 +1    12    11     5
  O(HETATM   15  O5  HET A   1)   1.19624260 +1  126.8332096 +1   77.3962198 +1    14    12    11
  O(HETATM   16  O6  HET A   1)   1.35099529 +1  110.1604810 +1 -103.5422681 +1    14    12    11
  H(HETATM   17 1H2  HET A   1)   1.09268578 +1  119.3111946 +1 -179.0894641 +1     2     1     3
  H(HETATM   18 1H3  HET A   1)   1.08774567 +1  120.4528649 +1  179.6664891 +1     3     2     1
  H(HETATM   19  H4  HET A   1)   1.09482194 +1  119.6883468 +1  177.5032379 +1     4     3     2
  H(HETATM   20  H5  HET A   1)   1.08545221 +1  121.4276790 +1 -172.4300058 +1     5     4     3
  H(HETATM   21 1H6  HET A   1)   1.11184086 +1  112.7539364 +1  -77.5423123 +1    13    12    11
  H(HETATM   22 2H2  HET A   1)   0.99234581 +1  113.0040958 +1 -179.0821168 +1     9     7     1
  H(HETATM   23 2H3  HET A   1)   1.01028675 +1  111.4666821 +1    0.5108146 +1    10     6     1
  H(HETATM   24 1H9  HET A   1)   1.09443063 +1  113.8065046 +1  163.6250969 +1    13    12    11
  H(HETATM   25 2H9  HET A   1)   1.11693508 +1  109.6367474 +1   37.5877019 +1    13    12    11
  H(HETATM   26 2H6  HET A   1)   0.99478873 +1  113.4470465 +1  177.9484086 +1    16    14    12
 
 TIME=     0.06
  REACTANTS AND PRODUCTS SWAPPED AROUND
 *+*+*+*+*+*+*+*+*+*+*+*+*+*+*+*+*+*+*+*+*+*+*+*+*+*+*+*+*+*+*+*+*+*+*+*+*+*+*+*+
            BAR SHORTENED BY       1.000 PERCENT
 GRADIENT CRITERION IN FLEPO =    10.000


          FOR POINT   20 SECOND STRUCTURE
 DISTANCE A - B      2.733368
 HEAT             -212.088445
 GRADIENT NORM      15.279951
 DIRECTION COSINE    0.365003

 Move up activation barrier to near to the transition-state geometry

  C(HETATM    1  C1  HET A   1)   0.00000000 +0    0.0000000 +0    0.0000000 +0
  C(HETATM    2  C2  HET A   1)   1.34550741 +1    0.0000000 +0    0.0000000 +0     1     0     0
  C(HETATM    3  C3  HET A   1)   1.45414810 +1  120.5943656 +1    0.0000000 +0     2     1     0
  C(HETATM    4  C4  HET A   1)   1.33882623 +1  121.2555539 +1   -5.0889410 +1     3     2     1
  C(HETATM    5  C5  HET A   1)   1.50247540 +1  123.2740279 +1   -1.9247313 +1     4     3     2
  C(HETATM    6  C6  HET A   1)   1.51315749 +1  123.3731024 +1   -0.3632915 +1     1     2     3
  C(HETATM    7  C7  HET A   1)   1.46754359 +1  122.0151466 +1  177.9005015 +1     1     2     3
  O(HETATM    8  O1  HET A   1)   1.21185995 +1  127.4743292 +1 -164.4028299 +1     7     1     2
  O(HETATM    9  O2  HET A   1)   1.35579934 +1  112.6789538 +1   14.9705888 +1     7     1     2
  O(HETATM   10  O3  HET A   1)   1.41410846 +1  109.2167211 +1  127.3106659 +1     6     1     2
  O(HETATM   11  O4  HET A   1)   1.44300558 +1  102.5595535 +1  132.3340998 +1     5     4     3
  C(HETATM   12  C8  HET A   1)   1.36258750 +1  117.9780769 +1  162.6972364 +1    11     5     4
  C(HETATM   13  C9  HET A   1)   1.33120727 +1  130.1655400 +1   24.7132820 +1    12    11     5
  C(HETATM   14  C10 HET A   1)   1.48977529 +1  109.3134683 +1 -155.2887945 +1    12    11     5
  O(HETATM   15  O5  HET A   1)   1.19976679 +1  128.1211754 +1   56.9375940 +1    14    12    11
  O(HETATM   16  O6  HET A   1)   1.36020527 +1  110.5616639 +1 -127.8179727 +1    14    12    11
  H(HETATM   17 1H2  HET A   1)   1.09691294 +1  121.8898645 +1  179.2195453 +1     2     1     3
  H(HETATM   18 1H3  HET A   1)   1.09092744 +1  116.7293204 +1  174.2529148 +1     3     2     1
  H(HETATM   19  H4  HET A   1)   1.08826792 +1  122.2955154 +1  179.0369403 +1     4     3     2
  H(HETATM   20  H5  HET A   1)   1.12149929 +1  110.4802473 +1 -111.6578486 +1     5     4     3
  H(HETATM   21 1H6  HET A   1)   1.08082264 +1  125.5134637 +1   -7.2502768 +1    13    12    11
  H(HETATM   22 2H2  HET A   1)   0.99242264 +1  113.2194828 +1 -179.4902745 +1     9     7     1
  H(HETATM   23 2H3  HET A   1)   0.98712018 +1  110.5303184 +1   50.8087115 +1    10     6     1
  H(HETATM   24 1H9  HET A   1)   1.08152111 +1  122.4006416 +1  172.4477904 +1    13    12    11
  H(HETATM   25 2H9  HET A   1)   1.12831933 +1  111.9842634 +1 -113.3647223 +1     6     1     2
  H(HETATM   26 2H6  HET A   1)   0.98547068 +1  112.9591118 +1 -176.1571679 +1    16    14    12
 
 TIME=     0.08
  REACTANTS AND PRODUCTS SWAPPED AROUND
 *+*+*+*+*+*+*+*+*+*+*+*+*+*+*+*+*+*+*+*+*+*+*+*+*+*+*+*+*+*+*+*+*+*+*+*+*+*+*+*+
            BAR SHORTENED BY       1.000 PERCENT
 GRADIENT CRITERION IN FLEPO =    10.000


          FOR POINT   21 FIRST  STRUCTURE
 DISTANCE A - B      2.706035
 HEAT             -244.173671
 GRADIENT NORM      24.477536
 DIRECTION COSINE    0.265450

 Move up activation barrier to near to the transition-state geometry

  C(HETATM    1  C1  HET A   1)   0.00000000 +0    0.0000000 +0    0.0000000 +0
  C(HETATM    2  C2  HET A   1)   1.40596233 +1    0.0000000 +0    0.0000000 +0     1     0     0
  C(HETATM    3  C3  HET A   1)   1.38548625 +1  120.4480199 +1    0.0000000 +0     2     1     0
  C(HETATM    4  C4  HET A   1)   1.40450260 +1  120.2780621 +1   -1.1130180 +1     3     2     1
  C(HETATM    5  C5  HET A   1)   1.38526974 +1  120.1960043 +1   -3.4944717 +1     4     3     2
  C(HETATM    6  C6  HET A   1)   1.40209344 +1  118.3988160 +1    3.1741426 +1     1     2     3
  C(HETATM    7  C7  HET A   1)   1.45239372 +1  121.8988005 +1 -179.1473389 +1     1     2     3
  O(HETATM    8  O1  HET A   1)   1.21964774 +1  126.3442496 +1  178.6876006 +1     7     1     2
  O(HETATM    9  O2  HET A   1)   1.35193674 +1  113.3902558 +1   -1.9565552 +1     7     1     2
  O(HETATM   10  O3  HET A   1)   1.34629412 +1  122.8503536 +1  175.4956369 +1     6     1     2
  O(HETATM   11  O4  HET A   1)   2.58223852 +1   88.0632139 +1  124.0168059 +1     5     4     3
  C(HETATM   12  C8  HET A   1)   1.19548599 +1  106.6157796 +1  177.7622938 +1    11     5     4
  C(HETATM   13  C9  HET A   1)   1.48002546 +1  125.6126063 +1   34.4442651 +1    12    11     5
  C(HETATM   14  C10 HET A   1)   1.52605042 +1  118.5338513 +1 -144.4932032 +1    12    11     5
  O(HETATM   15  O5  HET A   1)   1.19531668 +1  126.4731446 +1   76.6414267 +1    14    12    11
  O(HETATM   16  O6  HET A   1)   1.34662989 +1  110.5771613 +1 -104.0887031 +1    14    12    11
  H(HETATM   17 1H2  HET A   1)   1.09316685 +1  119.3173505 +1 -178.5809315 +1     2     1     3
  H(HETATM   18 1H3  HET A   1)   1.09025756 +1  120.6034711 +1 -179.9638630 +1     3     2     1
  H(HETATM   19  H4  HET A   1)   1.09139772 +1  119.7409699 +1  177.4776378 +1     4     3     2
  H(HETATM   20  H5  HET A   1)   1.08643171 +1  121.2072053 +1 -171.7967655 +1     5     4     3
  H(HETATM   21 1H6  HET A   1)   1.10854155 +1  112.7115040 +1  -76.6690376 +1    13    12    11
  H(HETATM   22 2H2  HET A   1)   0.99302645 +1  112.9967397 +1 -178.6657561 +1     9     7     1
  H(HETATM   23 2H3  HET A   1)   1.01018804 +1  111.5487558 +1    1.3147885 +1    10     6     1
  H(HETATM   24 1H9  HET A   1)   1.09866027 +1  113.7503855 +1  163.9310753 +1    13    12    11
  H(HETATM   25 2H9  HET A   1)   1.11958670 +1  108.9779714 +1   37.8462030 +1    13    12    11
  H(HETATM   26 2H6  HET A   1)   0.99029093 +1  113.8927894 +1  177.8545028 +1    16    14    12
 
 *+*+*+*+*+*+*+*+*+*+*+*+*+*+*+*+*+*+*+*+*+*+*+*+*+*+*+*+*+*+*+*+*+*+*+*+*+*+*+*+
            BAR SHORTENED BY       1.000 PERCENT
 GRADIENT CRITERION IN FLEPO =    10.000


          FOR POINT   22 FIRST  STRUCTURE
 DISTANCE A - B      2.678974
 HEAT             -243.863756
 GRADIENT NORM      25.848315
 DIRECTION COSINE    0.518031

 Move up activation barrier to near to the transition-state geometry

  C(HETATM    1  C1  HET A   1)   0.00000000 +0    0.0000000 +0    0.0000000 +0
  C(HETATM    2  C2  HET A   1)   1.40542297 +1    0.0000000 +0    0.0000000 +0     1     0     0
  C(HETATM    3  C3  HET A   1)   1.38310082 +1  120.8615382 +1    0.0000000 +0     2     1     0
  C(HETATM    4  C4  HET A   1)   1.40527505 +1  119.9546243 +1   -1.6465308 +1     3     2     1
  C(HETATM    5  C5  HET A   1)   1.38243406 +1  120.4361255 +1   -3.4025756 +1     4     3     2
  C(HETATM    6  C6  HET A   1)   1.40206198 +1  119.0924115 +1    6.1392420 +1     5     4     3
  C(HETATM    7  C7  HET A   1)   1.44757096 +1  122.3260542 +1 -179.2054458 +1     1     2     3
  O(HETATM    8  O1  HET A   1)   1.21783339 +1  126.6602740 +1  178.8619007 +1     7     1     2
  O(HETATM    9  O2  HET A   1)   1.35280522 +1  113.3120326 +1   -1.2125525 +1     7     1     2
  O(HETATM   10  O3  HET A   1)   1.34182635 +1  115.8549985 +1  179.8567109 +1     6     5     4
  O(HETATM   11  O4  HET A   1)   2.55435253 +1   88.1938104 +1  124.2681945 +1     5     4     3
  C(HETATM   12  C8  HET A   1)   1.20084847 +1  107.7748857 +1  178.2411486 +1    11     5     4
  C(HETATM   13  C9  HET A   1)   1.47857069 +1  124.8356260 +1   33.3517666 +1    12    11     5
  C(HETATM   14  C10 HET A   1)   1.52124023 +1  118.8788469 +1 -144.4544545 +1    12    11     5
  O(HETATM   15  O5  HET A   1)   1.19470652 +1  126.3410525 +1   75.2240403 +1    14    12    11
  O(HETATM   16  O6  HET A   1)   1.34876040 +1  110.6401444 +1 -105.2020014 +1    14    12    11
  H(HETATM   17 1H2  HET A   1)   1.09623673 +1  119.0141614 +1 -178.8377354 +1     2     1     3
  H(HETATM   18 1H3  HET A   1)   1.08483391 +1  120.6556755 +1  179.8917207 +1     3     2     1
  H(HETATM   19  H4  HET A   1)   1.09573911 +1  119.5443070 +1  177.5421913 +1     4     3     2
  H(HETATM   20  H5  HET A   1)   1.08631895 +1  121.2961036 +1 -171.7068588 +1     5     4     3
  H(HETATM   21 1H6  HET A   1)   1.10553557 +1  112.7712368 +1  -75.4192673 +1    13    12    11
  H(HETATM   22 2H2  HET A   1)   0.99197428 +1  113.2350280 +1 -178.6067937 +1     9     7     1
  H(HETATM   23 2H3  HET A   1)   1.00828332 +1  111.6524737 +1  177.2688575 +1    10     6     5
  H(HETATM   24 1H9  HET A   1)   1.09952743 +1  113.2303642 +1  165.1876313 +1    13    12    11
  H(HETATM   25 2H9  HET A   1)   1.12568419 +1  108.6558517 +1   39.0394218 +1    13    12    11
  H(HETATM   26 2H6  HET A   1)   0.99184299 +1  113.9112866 +1  178.0434582 +1    16    14    12
 
[...]
  O(HETATM   16  O6  HET A   1)   1.35348601 +1  111.7207421 +1 -162.5941377 +1    14    12    11
  H(HETATM   17 1H2  HET A   1)   1.09187858 +1  121.3277056 +1 -175.3093730 +1     2     1     3
  H(HETATM   18 1H3  HET A   1)   1.09066835 +1  117.8958610 +1 -176.5839403 +1     3     2     1
  H(HETATM   19  H4  HET A   1)   1.08960520 +1  121.7503238 +1 -175.8229303 +1     4     3     2
  H(HETATM   20  H5  HET A   1)   1.11325726 +1  116.6939305 +1 -138.4030936 +1     5     4     3
  H(HETATM   21 1H6  HET A   1)   1.09975344 +1  120.6058400 +1  -49.0870374 +1    13    12    11
  H(HETATM   22 2H2  HET A   1)   0.99233358 +1  113.2993840 +1 -175.6926262 +1     9     7     1
  H(HETATM   23 2H3  HET A   1)   0.99101177 +1  110.3793315 +1   31.6713379 +1    10     6     1
  H(HETATM   24 1H9  HET A   1)   1.09087245 +1  119.4253729 +1  170.0488324 +1    13    12    11
  H(HETATM   25 2H9  HET A   1)   1.38708521 +1   98.1408156 +1   42.4846830 +1    13    12    11
  H(HETATM   26 2H6  HET A   1)   0.99374495 +1  112.6624557 +1 -172.4356454 +1    16    14    12
 
 *+*+*+*+*+*+*+*+*+*+*+*+*+*+*+*+*+*+*+*+*+*+*+*+*+*+*+*+*+*+*+*+*+*+*+*+*+*+*+*+
            BAR SHORTENED BY       1.000 PERCENT
 AT END OF STEPWISE ASCENT OF REACTION BARRIER

 -------------------------------------------------------------------------------

 Move up activation barrier to near to the transition-state geometry



     TRANSITION STATE LOCATED USING THE "SADDLE" TECHNIQUE    
     SCF FIELD WAS ACHIEVED                                   


                              PM7 CALCULATION
                                                       MOPAC2016 (Version: 21.158W)
                                                       Fri Jun 11 08:59:23 2021
                                                       No. of days remaining = 361




          FINAL H.O.F PLUS STRESS =       -166.69037 KCAL/MOL =    -697.43251 KJ/MOL
          FINAL STRESS            =          0.00000 KCAL/MOL =       0.00000 KJ/MOL
          FINAL HEAT OF FORMATION =       -166.69037 KCAL/MOL =    -697.43251 KJ/MOL
          TOTAL DISTORTION        =          0.00311 Angstroms
          AVERAGE DISTORTION      =          0.00012 Angstroms per atom (all atoms)
          RMS DISTORTION          =          0.00020 Angstroms per atom (all atoms)


          TOTAL ENERGY            =      -3132.28747 EV
          ELECTRONIC ENERGY       =     -17724.90290 EV  POINT GROUP:     C1  
          CORE-CORE REPULSION     =      14592.61543 EV
          COSMO AREA              =        230.58 SQUARE ANGSTROMS
          COSMO VOLUME            =        242.43 CUBIC ANGSTROMS

          GRADIENT NORM           =         13.41281 = 2.63047 PER ATOM
          IONIZATION POTENTIAL    =          8.455087 EV
          HOMO LUMO ENERGIES (EV) =         -8.455 -1.353
          NO. OF FILLED LEVELS    =         43
          MOLECULAR WEIGHT        =        226.1854

          MOLECULAR DIMENSIONS (Angstroms)

            Atom       Atom       Distance
            H    26    H    22     9.65479
            H    24    H    18     5.87964
            H    20    H    22     3.57293


          SCF CALCULATIONS        =       2574
 
          WALL-CLOCK TIME         =         32.158 SECONDS
          COMPUTATION TIME        =  1 MINUTE AND 58.641 SECONDS



       FINAL  POINT  AND  DERIVATIVES

   PARAMETER     ATOM    TYPE            VALUE        GRADIENT
      1          1  C    CARTESIAN X     0.283340      1.989207  KCAL/ANGSTROM
      2          1  C    CARTESIAN Y    -0.040790     -0.587844  KCAL/ANGSTROM
      3          1  C    CARTESIAN Z     0.038341     -1.914861  KCAL/ANGSTROM
      4          2  C    CARTESIAN X    -0.788870     -3.707953  KCAL/ANGSTROM
      5          2  C    CARTESIAN Y    -0.779575     -1.438684  KCAL/ANGSTROM
      6          2  C    CARTESIAN Z     0.430953      0.716661  KCAL/ANGSTROM
      7          3  C    CARTESIAN X    -0.658098      0.044536  KCAL/ANGSTROM
      8          3  C    CARTESIAN Y    -2.201919     -0.975660  KCAL/ANGSTROM
      9          3  C    CARTESIAN Z     0.600651     -1.874909  KCAL/ANGSTROM
     10          4  C    CARTESIAN X     0.514886     -1.584788  KCAL/ANGSTROM
     11          4  C    CARTESIAN Y    -2.826750      1.085667  KCAL/ANGSTROM
     12          4  C    CARTESIAN Z     0.365846     -0.989076  KCAL/ANGSTROM
     13          5  C    CARTESIAN X     1.732406     -1.074097  KCAL/ANGSTROM
     14          5  C    CARTESIAN Y    -2.090071      0.680193  KCAL/ANGSTROM
     15          5  C    CARTESIAN Z    -0.018597     -0.302024  KCAL/ANGSTROM
     16          6  C    CARTESIAN X     1.608373     -2.588228  KCAL/ANGSTROM
     17          6  C    CARTESIAN Y    -0.622453     -0.632678  KCAL/ANGSTROM
     18          6  C    CARTESIAN Z    -0.098697     -0.442882  KCAL/ANGSTROM
     19          7  C    CARTESIAN X     0.110121     -1.225657  KCAL/ANGSTROM
     20          7  C    CARTESIAN Y     1.361490      1.001778  KCAL/ANGSTROM
     21          7  C    CARTESIAN Z    -0.374289     -2.199559  KCAL/ANGSTROM
     22          8  O    CARTESIAN X     0.954970     -1.917655  KCAL/ANGSTROM
     23          8  O    CARTESIAN Y     2.116928     -0.009726  KCAL/ANGSTROM
     24          8  O    CARTESIAN Z    -0.800493     -1.212560  KCAL/ANGSTROM
     25          9  O    CARTESIAN X    -1.181987     -2.760150  KCAL/ANGSTROM
     26          9  O    CARTESIAN Y     1.766422     -1.251675  KCAL/ANGSTROM
     27          9  O    CARTESIAN Z    -0.290976     -1.850745  KCAL/ANGSTROM
     28         10  O    CARTESIAN X     2.385240     -1.367626  KCAL/ANGSTROM
     29         10  O    CARTESIAN Y    -0.149127      0.739727  KCAL/ANGSTROM
     30         10  O    CARTESIAN Z    -1.165369      1.270207  KCAL/ANGSTROM
     31         11  O    CARTESIAN X     2.687250     -3.110959  KCAL/ANGSTROM
     32         11  O    CARTESIAN Y    -2.624507     -0.166417  KCAL/ANGSTROM
     33         11  O    CARTESIAN Z     1.129545      1.120466  KCAL/ANGSTROM
     34         12  C    CARTESIAN X     3.585729     -1.128747  KCAL/ANGSTROM
     35         12  C    CARTESIAN Y    -1.864415     -0.286241  KCAL/ANGSTROM
     36         12  C    CARTESIAN Z     1.672745     -0.185019  KCAL/ANGSTROM
     37         13  C    CARTESIAN X     3.940531      1.051057  KCAL/ANGSTROM
     38         13  C    CARTESIAN Y    -0.622317     -1.142463  KCAL/ANGSTROM
     39         13  C    CARTESIAN Z     1.201537     -0.571645  KCAL/ANGSTROM
     40         14  C    CARTESIAN X     4.262038      0.917918  KCAL/ANGSTROM
     41         14  C    CARTESIAN Y    -2.531316     -1.465019  KCAL/ANGSTROM
     42         14  C    CARTESIAN Z     2.847564     -0.833405  KCAL/ANGSTROM
     43         15  O    CARTESIAN X     4.361070      1.482302  KCAL/ANGSTROM
     44         15  O    CARTESIAN Y    -3.710044     -1.306633  KCAL/ANGSTROM
     45         15  O    CARTESIAN Z     3.049871     -1.713217  KCAL/ANGSTROM
     46         16  O    CARTESIAN X     4.907047      1.212986  KCAL/ANGSTROM
     47         16  O    CARTESIAN Y    -1.626211     -1.171367  KCAL/ANGSTROM
     48         16  O    CARTESIAN Z     3.625499      0.895942  KCAL/ANGSTROM
     49         17  H    CARTESIAN X    -1.780573     -1.997358  KCAL/ANGSTROM
     50         17  H    CARTESIAN Y    -0.337455     -0.898197  KCAL/ANGSTROM
     51         17  H    CARTESIAN Z     0.551284     -2.538188  KCAL/ANGSTROM
     52         18  H    CARTESIAN X    -1.557981     -1.378285  KCAL/ANGSTROM
     53         18  H    CARTESIAN Y    -2.762334     -0.694012  KCAL/ANGSTROM
     54         18  H    CARTESIAN Z     0.860843     -2.428961  KCAL/ANGSTROM
     55         19  H    CARTESIAN X     0.615209     -0.814997  KCAL/ANGSTROM
     56         19  H    CARTESIAN Y    -3.909437      0.817343  KCAL/ANGSTROM
     57         19  H    CARTESIAN Z     0.429315      0.328406  KCAL/ANGSTROM
     58         20  H    CARTESIAN X     2.333270      1.128950  KCAL/ANGSTROM
     59         20  H    CARTESIAN Y    -2.536898      0.727483  KCAL/ANGSTROM
     60         20  H    CARTESIAN Z    -0.842831      2.104911  KCAL/ANGSTROM
     61         21  H    CARTESIAN X     4.100907     -0.806652  KCAL/ANGSTROM
     62         21  H    CARTESIAN Y    -0.438728     -1.711420  KCAL/ANGSTROM
     63         21  H    CARTESIAN Z     0.128436     -1.208815  KCAL/ANGSTROM
     64         22  H    CARTESIAN X    -1.325389     -1.136421  KCAL/ANGSTROM
     65         22  H    CARTESIAN Y     2.688257     -0.231159  KCAL/ANGSTROM
     66         22  H    CARTESIAN Z    -0.629586     -1.102114  KCAL/ANGSTROM
     67         23  H    CARTESIAN X     2.219113      0.298705  KCAL/ANGSTROM
     68         23  H    CARTESIAN Y     0.816062     -0.869511  KCAL/ANGSTROM
     69         23  H    CARTESIAN Z    -1.301159      0.598219  KCAL/ANGSTROM
     70         24  H    CARTESIAN X     4.552598      2.874789  KCAL/ANGSTROM
     71         24  H    CARTESIAN Y     0.048831      1.697293  KCAL/ANGSTROM
     72         24  H    CARTESIAN Z     1.791238     -0.671183  KCAL/ANGSTROM
     73         25  H    CARTESIAN X     2.562333      1.025681  KCAL/ANGSTROM
     74         25  H    CARTESIAN Y    -0.159317      0.793755  KCAL/ANGSTROM
     75         25  H    CARTESIAN Z     0.917153      0.140658  KCAL/ANGSTROM
     76         26  H    CARTESIAN X     5.466440      4.663630  KCAL/ANGSTROM
     77         26  H    CARTESIAN Y    -2.051571     -2.707774  KCAL/ANGSTROM
     78         26  H    CARTESIAN Z     4.332281      0.833022  KCAL/ANGSTROM




   ATOM                 CHEMICAL                   X               Y               Z
  NUMBER                 SYMBOL               (ANGSTROMS)     (ANGSTROMS)     (ANGSTROMS)
 
     1       C(HETATM    1  C1  HET A   1)    0.28333955  *  -0.04078973  *   0.03834087  *
     2       C(HETATM    2  C2  HET A   1)   -0.78887007  *  -0.77957513  *   0.43095339  *
     3       C(HETATM    3  C3  HET A   1)   -0.65809791  *  -2.20191914  *   0.60065077  *
     4       C(HETATM    4  C4  HET A   1)    0.51488650  *  -2.82674972  *   0.36584596  *
     5       C(HETATM    5  C5  HET A   1)    1.73240561  *  -2.09007128  *  -0.01859711  *
     6       C(HETATM    6  C6  HET A   1)    1.60837277  *  -0.62245267  *  -0.09869694  *
     7       C(HETATM    7  C7  HET A   1)    0.11012117  *   1.36149020  *  -0.37428918  *
     8       O(HETATM    8  O1  HET A   1)    0.95496999  *   2.11692757  *  -0.80049327  *
     9       O(HETATM    9  O2  HET A   1)   -1.18198676  *   1.76642158  *  -0.29097579  *
    10       O(HETATM   10  O3  HET A   1)    2.38523991  *  -0.14912712  *  -1.16536938  *
    11       O(HETATM   11  O4  HET A   1)    2.68724994  *  -2.62450650  *   1.12954465  *
    12       C(HETATM   12  C8  HET A   1)    3.58572857  *  -1.86441468  *   1.67274498  *
    13       C(HETATM   13  C9  HET A   1)    3.94053140  *  -0.62231668  *   1.20153694  *
    14       C(HETATM   14  C10 HET A   1)    4.26203769  *  -2.53131637  *   2.84756439  *
    15       O(HETATM   15  O5  HET A   1)    4.36107008  *  -3.71004389  *   3.04987057  *
    16       O(HETATM   16  O6  HET A   1)    4.90704667  *  -1.62621083  *   3.62549928  *
    17       H(HETATM   17 1H2  HET A   1)   -1.78057253  *  -0.33745458  *   0.55128378  *
    18       H(HETATM   18 1H3  HET A   1)   -1.55798091  *  -2.76233353  *   0.86084319  *
    19       H(HETATM   19  H4  HET A   1)    0.61520925  *  -3.90943709  *   0.42931536  *
    20       H(HETATM   20  H5  HET A   1)    2.33326978  *  -2.53689843  *  -0.84283053  *
    21       H(HETATM   21 1H6  HET A   1)    4.10090661  *  -0.43872761  *   0.12843581  *
    22       H(HETATM   22 2H2  HET A   1)   -1.32538870  *   2.68825662  *  -0.62958613  *
    23       H(HETATM   23 2H3  HET A   1)    2.21911276  *   0.81606246  *  -1.30115875  *
    24       H(HETATM   24 1H9  HET A   1)    4.55259764  *   0.04883094  *   1.79123801  *
    25       H(HETATM   25 2H9  HET A   1)    2.56233288  *  -0.15931707  *   0.91715350  *
    26       H(HETATM   26 2H6  HET A   1)    5.46644012  *  -2.05157118  *   4.33228136  *

                             CARTESIAN COORDINATES

   1    C        0.283339552    -0.040789729     0.038340867
   2    C       -0.788870065    -0.779575129     0.430953389
   3    C       -0.658097907    -2.201919141     0.600650775
   4    C        0.514886496    -2.826749717     0.365845957
   5    C        1.732405608    -2.090071281    -0.018597106
   6    C        1.608372771    -0.622452674    -0.098696936
   7    C        0.110121166     1.361490203    -0.374289176
   8    O        0.954969987     2.116927565    -0.800493273
   9    O       -1.181986759     1.766421581    -0.290975789
  10    O        2.385239908    -0.149127120    -1.165369379
  11    O        2.687249938    -2.624506504     1.129544648
  12    C        3.585728565    -1.864414676     1.672744978
  13    C        3.940531397    -0.622316677     1.201536942
  14    C        4.262037694    -2.531316373     2.847564391
  15    O        4.361070085    -3.710043888     3.049870573
  16    O        4.907046672    -1.626210829     3.625499277
  17    H       -1.780572535    -0.337454576     0.551283777
  18    H       -1.557980914    -2.762333530     0.860843185
  19    H        0.615209251    -3.909437090     0.429315356
  20    H        2.333269779    -2.536898427    -0.842830535
  21    H        4.100906612    -0.438727612     0.128435808
  22    H       -1.325388705     2.688256616    -0.629586125
  23    H        2.219112761     0.816062459    -1.301158751
  24    H        4.552597639     0.048830944     1.791238008
  25    H        2.562332883    -0.159317072     0.917153498
  26    H        5.466440118    -2.051571176     4.332281364


           Empirical Formula: C10 H10 O6  =    26 atoms



      MOLECULAR POINT GROUP   :   C1  


                  EIGENVALUES  
 -32.12734 -32.00823 -31.51840 -30.61997 -30.44152 -30.38331 -29.10885 -27.49872
 -27.02871 -25.93313 -23.59667 -23.05163 -21.90333 -20.57743 -19.95543 -18.22459
 -17.97868 -17.74838 -17.48452 -17.20915 -16.82658 -16.34532 -16.04751 -15.94401
 -15.71935 -15.58640 -15.07897 -14.19060 -14.13630 -14.04667 -13.90305 -13.14932
 -13.00960 -12.81833 -12.61127 -12.47953 -12.45884 -12.26634 -11.61922 -11.39032
 -11.03927 -10.16605  -8.45509  -1.35332  -0.88458  -0.06017   0.85276   0.92479
   1.41443   1.60061   1.80491   2.71326   2.76636   2.89751   3.32939   3.67441
   3.77748   3.97083   4.06360   4.11972   4.16851   4.32455   4.51918   4.60131
   5.03035   5.05802   5.14951   5.26092   5.47650   5.62711   5.65867   5.69741
   6.19904   6.40304


              NET ATOMIC CHARGES AND DIPOLE CONTRIBUTIONS

  ATOM NO.                 TYPE                        CHARGE      No. of ELECS.   s-Pop       p-Pop       
    1          C(HETATM    1  C1  HET A   1)          -0.132661        4.1327     1.07525     3.05741
    2          C(HETATM    2  C2  HET A   1)          -0.107296        4.1073     1.09012     3.01717
    3          C(HETATM    3  C3  HET A   1)          -0.125415        4.1254     1.08665     3.03877
    4          C(HETATM    4  C4  HET A   1)          -0.174646        4.1746     1.09347     3.08118
    5          C(HETATM    5  C5  HET A   1)           0.133888        3.8661     1.10589     2.76022
    6          C(HETATM    6  C6  HET A   1)          -0.076970        4.0770     1.09088     2.98609
    7          C(HETATM    7  C7  HET A   1)           0.650272        3.3497     1.11139     2.23834
    8          O(HETATM    8  O1  HET A   1)          -0.533482        6.5335     1.87844     4.65504
    9          O(HETATM    9  O2  HET A   1)          -0.542605        6.5426     1.83929     4.70332
   10          O(HETATM   10  O3  HET A   1)          -0.551669        6.5517     1.85060     4.70107
   11          O(HETATM   11  O4  HET A   1)          -0.347467        6.3475     1.88089     4.46658
   12          C(HETATM   12  C8  HET A   1)           0.297302        3.7027     1.11064     2.59206
   13          C(HETATM   13  C9  HET A   1)          -0.585334        4.5853     1.08080     3.50454
   14          C(HETATM   14  C10 HET A   1)           0.575795        3.4242     1.12762     2.29659
   15          O(HETATM   15  O5  HET A   1)          -0.441252        6.4413     1.87771     4.56354
   16          O(HETATM   16  O6  HET A   1)          -0.535461        6.5355     1.84215     4.69331
   17          H(HETATM   17 1H2  HET A   1)           0.175229        0.8248     0.82477
   18          H(HETATM   18 1H3  HET A   1)           0.159755        0.8402     0.84024
   19          H(HETATM   19  H4  HET A   1)           0.169585        0.8304     0.83041
   20          H(HETATM   20  H5  HET A   1)           0.171551        0.8284     0.82845
   21          H(HETATM   21 1H6  HET A   1)           0.227374        0.7726     0.77263
   22          H(HETATM   22 2H2  HET A   1)           0.360915        0.6391     0.63909
   23          H(HETATM   23 2H3  HET A   1)           0.352728        0.6473     0.64727
   24          H(HETATM   24 1H9  HET A   1)           0.191712        0.8083     0.80829
   25          H(HETATM   25 2H9  HET A   1)           0.328776        0.6712     0.67122
   26          H(HETATM   26 2H6  HET A   1)           0.359377        0.6406     0.64062

          NET CHARGE ON RESIDUES

      Residue         Charge  Anion or
                              Cation?
      HET A   1       +0.000
 


 DIPOLE           X         Y         Z       TOTAL
 POINT-CHG.    -1.807     0.280     1.250     2.216
 HYBRID         0.083     0.455    -0.073     0.468
 SUM           -1.725     0.735     1.177     2.214


          ATOMIC ORBITAL ELECTRON POPULATIONS

                   Atom                  s        px        py        pz   
   C(HETATM    1  C1  HET A   1)   1.07525   1.00789   0.97293   1.07659
   C(HETATM    2  C2  HET A   1)   1.09012   1.05825   0.99106   0.96786
   C(HETATM    3  C3  HET A   1)   1.08665   1.05631   1.00281   0.97965
   C(HETATM    4  C4  HET A   1)   1.09347   0.98135   1.09456   1.00526
   C(HETATM    5  C5  HET A   1)   1.10589   0.90119   0.99072   0.86831
   C(HETATM    6  C6  HET A   1)   1.09088   0.96051   0.97987   1.04570
   C(HETATM    7  C7  HET A   1)   1.11139   0.72513   0.83514   0.67807
   O(HETATM    8  O1  HET A   1)   1.87844   1.55373   1.59749   1.50383
   O(HETATM    9  O2  HET A   1)   1.83929   1.42163   1.47801   1.80368
   O(HETATM   10  O3  HET A   1)   1.85060   1.69061   1.43930   1.57117
   O(HETATM   11  O4  HET A   1)   1.88089   1.41208   1.44429   1.61021
   C(HETATM   12  C8  HET A   1)   1.11064   0.81596   0.90573   0.87037
   C(HETATM   13  C9  HET A   1)   1.08080   1.23698   1.07742   1.19014
   C(HETATM   14  C10 HET A   1)   1.12762   0.73514   0.78570   0.77575
   O(HETATM   15  O5  HET A   1)   1.87771   1.60120   1.26780   1.69455
   O(HETATM   16  O6  HET A   1)   1.84215   1.64990   1.50153   1.54188
   H(HETATM   17 1H2  HET A   1)   0.82477
   H(HETATM   18 1H3  HET A   1)   0.84024
   H(HETATM   19  H4  HET A   1)   0.83041
   H(HETATM   20  H5  HET A   1)   0.82845
   H(HETATM   21 1H6  HET A   1)   0.77263
   H(HETATM   22 2H2  HET A   1)   0.63909
   H(HETATM   23 2H3  HET A   1)   0.64727
   H(HETATM   24 1H9  HET A   1)   0.80829
   H(HETATM   25 2H9  HET A   1)   0.67122
   H(HETATM   26 2H6  HET A   1)   0.64062

 **********************
 *                    *
 * JOB ENDED NORMALLY *
 *                    *
 **********************



 TOTAL JOB TIME:            32.19 SECONDS

 == MOPAC DONE ==
