 *******************************************************************************
 ** Cite this program as: MOPAC2016, Version: 22.066W, James J. P. Stewart,   **
 **                           web-site: HTTP://OpenMOPAC.net.                 **
 *******************************************************************************
 **                                                                           **
 **                                MOPAC2016                                  **
 **                                                                           **
 *******************************************************************************

                              PM7 CALCULATION RESULTS

 *******************************************************************************
 *  CALCULATION DONE:                                Sun May 15 01:25:50 2022  *
 *  PM7        - The PM7 Hamiltonian to be used
 *  PRECISE    - TIGHTER CRITERIA TO BE USED
 *  EF         - USE EF ROUTINE FOR MINIMUM SEARCH
 *  T=         - A TIME OF 172800.0 SECONDS REQUESTED
 *  DUMP=N     - RESTART FILE WRITTEN EVERY 7200.0 SECONDS REQUESTED
 *  BONDS      - FINAL BOND-ORDER MATRIX TO BE PRINTED
 *******************************************************************************
PM7 BONDS EF PRECISE
 # optimize the geometry
 beta-carotene
  ATOM    CHEMICAL      BOND LENGTH      BOND ANGLE     TWIST ANGLE 
 NUMBER    SYMBOL       (ANGSTROMS)      (DEGREES)       (DEGREES) 
   (I)                     NA:I           NB:NA:I       NC:NB:NA:I       NA    NB    NC 
     1       C          0.00000000       0.0000000       0.0000000        0     0     0
     2       C          1.51341100  *    0.0000000       0.0000000        1     0     0
     3       C          1.50934200  *  118.2915540  *    0.0000000        2     1     0
     4       C          1.50212800  *  119.5065060  *    7.8839690  *     3     2     1
     5       C          1.35594600  *  123.8470770  *   -4.1559500  *     4     3     2
     6       C          1.55809200  *  121.5783120  *   -0.5337770  *     5     4     3
     7       C          1.48306800  *  125.0868890  * -179.2384820  *     5     4     3
     8       C          1.34077400  *  130.8676860  *   -1.9879010  *     7     5     4
     9       C          1.45952000  *  128.2880470  *  179.3187060  *     8     7     5
    10       C          1.34989600  *  124.2619780  *    3.7774950  *     9     8     7
    11       C          1.44512100  *  123.3408210  *  179.5521440  *    10     9     8
    12       C          1.34368900  *  125.8256830  *  179.8694560  *    11    10     9
    13       C          1.46456300  *  124.6521820  *  179.7083870  *    12    11    10
    14       C          1.34685600  *  122.1037370  *   -0.5608620  *    13    12    11
    15       C          1.44098900  *  127.4804620  * -179.7104140  *    14    13    12
    16       C          1.34282100  *  121.0266170  * -179.7907930  *    15    14    13
    17       C          1.44030400  *  121.5824180  * -179.8598460  *    16    15    14
    18       C          1.34907700  *  128.4603260  * -179.4456010  *    17    16    15
    19       C          1.47002000  *  121.7303370  * -179.8926220  *    18    17    16
    20       C          1.34279500  *  125.0441980  *   -2.1226170  *    19    18    17
    21       C          1.44247900  *  125.9566400  *  178.9706870  *    20    19    18
    22       C          1.34965700  *  124.5142100  * -178.7004090  *    21    20    19
    23       C          1.46427600  *  123.9376080  *  179.6292550  *    22    21    20
    24       C          1.34032400  *  129.0869860  *    5.5643220  *    23    22    21
    25       C          1.48825400  *  130.4682450  *  179.4466830  *    24    23    22
    26       C          1.55734200  *  113.1246080  *  177.1276490  *    25    24    23
    27       C          1.55811800  *  116.1176590  * -176.0837110  *    26    25    24
    28       C          1.51287400  *  119.4866620  *  -13.2592170  *    27    26    25
    29       C          1.51014500  *  117.7709150  *   16.4125850  *    28    27    26
    30       C          1.35356300  *  125.3213770  *   -4.3552210  *    25    24    23
    31       C          1.51921700  *  113.6699850  * -176.6238690  *     9     8     7
    32       C          1.55561000  *  109.7095580  * -118.7380820  *     6     5     4
    33       C          1.55492900  *  110.2459100  *  122.1859370  *     6     5     4
    34       C          1.51277400  *  109.6529480  *  176.5261210  *     4     3     2
    35       C          1.50902400  *  115.4809050  *  179.8423330  *    13    12    11
    36       C          1.50916700  *  124.7390510  *   -0.4272120  *    18    17    16
    37       C          1.51884300  *  125.1571950  *    0.7229020  *    22    21    20
    38       C          1.51505900  *  126.5149440  *    0.6316000  *    30    25    24
    39       C          1.55338400  *  109.3692160  *   62.6932870  *    26    25    24
    40       C          1.55626600  *  110.8446980  *  -56.6211270  *    26    25    24
    41       H          1.09971000  *  106.3883000  * -132.3005950  *     1     2     3
    42       H          1.09903300  *  106.7704010  *  118.3861420  *     1     2     3
    43       H          1.09895600  *  108.3620340  * -123.3910820  *     2     1     3
    44       H          1.09802300  *  108.6028490  *  124.1246710  *     2     1     3
    45       H          1.09872900  *  108.0834260  * -115.7307780  *     3     2     1
    46       H          1.09921500  *  107.0849250  *  130.8485190  *     3     2     1
    47       H          1.08507500  *  113.7287900  *  177.8134250  *     7     5     4
    48       H          1.07738300  *  119.8444770  *   -0.4341820  *     8     7     5
    49       H          1.08605800  *  121.3199560  *   -0.3197520  *    10     9     8
    50       H          1.08167800  *  114.6231600  *    0.2140290  *    11    10     9
    51       H          1.09026800  *  118.6514250  *    0.0565410  *    12    11    10
    52       H          1.08591900  *  120.0910230  *    0.2817930  *    14    13    12
    53       H          1.08616000  *  118.1607930  *    0.1986280  *    15    14    13
    54       H          1.08454000  *  119.9767110  *    0.0804990  *    16    15    14
    55       H          1.08568400  *  111.7413390  *    0.7180490  *    17    16    15
    56       H          1.08805700  *  115.9065650  *  177.3049660  *    19    18    17
    57       H          1.07998300  *  118.7848550  *   -1.0193970  *    20    19    18
    58       H          1.08490000  *  114.6970210  *    1.0148550  *    21    20    19
    59       H          1.07814500  *  111.0946330  * -175.1508100  *    23    22    21
    60       H          1.08515600  *  115.5256920  *   -0.6299730  *    24    23    22
    61       H          1.10010400  *  109.6815510  * -136.8580200  *    27    26    25
    62       H          1.09864700  *  109.8513260  *  110.4114730  *    27    26    25
    63       H          1.09679100  *  109.1756850  * -108.2950680  *    28    27    26
    64       H          1.09954100  *  108.0362660  *  138.8399550  *    28    27    26
    65       H          1.09925400  *  106.9192810  * -134.2552650  *    29    28    27
    66       H          1.09887000  *  108.3361760  *  112.1857990  *    29    28    27
    67       H          1.09503400  *  113.3135050  *    0.7889730  *    31     9     8
    68       H          1.09609100  *  110.4951090  * -118.6451610  *    31     9     8
    69       H          1.09571900  *  110.6072640  *  120.1740810  *    31     9     8
    70       H          1.09671800  *  110.7057740  *   59.2963240  *    32     6     5
    71       H          1.09413200  *  113.3324730  *  -61.7131720  *    32     6     5
    72       H          1.09693000  *  111.0535810  *  178.9466920  *    32     6     5
    73       H          1.09629500  *  110.8642720  *  -59.1072880  *    33     6     5
    74       H          1.09715900  *  111.0439660  * -178.8651280  *    33     6     5
    75       H          1.09444200  *  113.2459950  *   62.0854940  *    33     6     5
    76       H          1.09632700  *  111.9383770  *    0.4909810  *    34     4     3
    77       H          1.09497400  *  111.0468180  * -117.0946060  *    34     4     3
    78       H          1.09489900  *  111.0386290  *  118.0219660  *    34     4     3
    79       H          1.09538900  *  112.7391700  *   -0.2931460  *    35    13    12
    80       H          1.09583700  *  110.5815080  * -119.9383670  *    35    13    12
    81       H          1.09592200  *  110.5581240  *  119.3790110  *    35    13    12
    82       H          1.09244400  *  113.7200890  *    0.1901130  *    36    18    17
    83       H          1.09591200  *  110.3611000  * -119.8563790  *    36    18    17
    84       H          1.09570300  *  110.3789620  *  120.3482240  *    36    18    17
    85       H          1.09029800  *  115.1681640  *    0.2362310  *    37    22    21
    86       H          1.09620200  *  110.1214450  * -120.2581270  *    37    22    21
    87       H          1.09654000  *  110.0824860  *  120.3007150  *    37    22    21
    88       H          1.09829600  *  111.8432630  * -178.5055720  *    38    30    25
    89       H          1.09381700  *  110.9498510  *   63.9769320  *    38    30    25
    90       H          1.09326100  *  110.9690670  *  -60.8822830  *    38    30    25
    91       H          1.09593100  *  110.9927280  *   59.1226290  *    39    26    25
    92       H          1.09503500  *  112.8872070  *  -61.7860420  *    39    26    25
    93       H          1.09640300  *  111.2875420  *  179.2586320  *    39    26    25
    94       H          1.09707400  *  110.6514660  *  -58.8459050  *    40    26    25
    95       H          1.09756200  *  110.8666390  * -178.1317200  *    40    26    25
    96       H          1.09355000  *  113.6043070  *   62.3477370  *    40    26    25
 


          CARTESIAN COORDINATES 

    NO.       ATOM           X           Y           Z

     1         C          0.0000      0.0000      0.0000
     2         C          1.5134      0.0000      0.0000
     3         C          2.2288      1.3290      0.0000
     4         C          1.4392      2.5943      0.1793
     5         C          0.0865      2.6346      0.2645
     6         C         -0.7761      1.3406      0.1686
     7         C         -0.7211      3.8681      0.4254
     8         C         -0.3490      5.1497      0.5548
     9         C         -1.1984      6.3280      0.6972
    10         C         -2.5442      6.2876      0.7931
    11         C         -3.3656      7.4671      0.9430
    12         C         -4.7057      7.4852      1.0404
    13         C         -5.5129      8.6970      1.1980
    14         C         -4.9582      9.9222      1.2703
    15         C         -5.6362     11.1836      1.4298
    16         C         -4.9498     12.3366      1.4824
    17         C         -5.6150     13.6037      1.6445
    18         C         -5.0695     14.8362      1.7043
    19         C         -5.8956     16.0398      1.8766
    20         C         -7.2364     16.0508      1.9489
    21         C         -8.0649     17.2164      2.1383
    22         C         -9.4111     17.1907      2.2318
    23         C        -10.2394     18.3815      2.4320
    24         C         -9.8740     19.6708      2.4564
    25         C        -10.6882     20.9021      2.6459
    26         C         -9.8324     22.2030      2.6736
    27         C        -10.6038     23.5254      2.9632
    28         C        -12.1152     23.5357      2.8969
    29         C        -12.8299     22.2057      2.9270
    30         C        -12.0368     20.9393      2.7558
    31         C         -0.4257      7.6354      0.7392
    32         C         -1.7273      1.4340     -1.0587
    33         C         -1.6465      1.1783      1.4468
    34         C          2.3796      3.7781      0.2295
    35         C         -7.0035      8.4776      1.2829
    36         C         -3.5913     15.1275      1.6170
    37         C        -10.2685     15.9386      2.1691
    38         C        -12.9771     19.7519      2.7225
    39         C         -9.1213     22.3811      1.3041
    40         C         -8.7434     22.1258      3.7827
    41         H         -0.3103     -0.7101      0.7803
    42         H         -0.3171     -0.5003     -0.9258
    43         H          1.8596     -0.5740     -0.8708
    44         H          1.8637     -0.5838      0.8615
    45         H          2.7897      1.4144     -0.9409
    46         H          2.9870      1.2877      0.7948
    47         H         -1.7916      3.6909      0.4356
    48         H          0.6973      5.4065      0.5577
    49         H         -3.0843      5.3458      0.7635
    50         H         -2.8162      8.3985      0.9695
    51         H         -5.2450      6.5382      1.0070
    52         H         -3.8801     10.0363      1.2073
    53         H         -6.7197     11.1772      1.5063
    54         H         -3.8682     12.3274      1.4032
    55         H         -6.6911     13.4855      1.7257
    56         H         -5.3545     16.9802      1.9581
    57         H         -7.7697     15.1158      1.8604
    58         H         -7.5210     18.1524      2.2089
    59         H        -11.2763     18.1157      2.5607
    60         H         -8.8144     19.8592      2.3176
    61         H        -10.2517     24.3160      2.2840
    62         H        -10.3294     23.9077      3.9559
    63         H        -12.4329     24.0882      2.0043
    64         H        -12.4887     24.1386      3.7372
    65         H        -13.5943     22.2354      2.1376
    66         H        -13.3820     22.1313      3.8742
    67         H          0.6569      7.5022      0.6425
    68         H         -0.5923      8.1492      1.6929
    69         H         -0.7317      8.2908     -0.0838
    70         H         -1.1537      1.5566     -1.9854
    71         H         -2.4358      2.2653     -0.9956
    72         H         -2.3328      0.5247     -1.1580
    73         H         -1.0176      1.1241      2.3432
    74         H         -2.2449      0.2597      1.4020
    75         H         -2.3604      1.9954      1.5900
    76         H          3.4270      3.4742      0.1176
    77         H          2.3242      4.2835      1.1993
    78         H          2.1867      4.4687     -0.5979
    79         H         -7.2808      7.4205      1.2083
    80         H         -7.5168      9.0004      0.4680
    81         H         -7.3924      8.8434      2.2399
    82         H         -2.9739     14.2346      1.4943
    83         H         -3.2469     15.6288      2.5287
    84         H         -3.3809     15.7806      0.7628
    85         H         -9.7184     15.0059      2.0417
    86         H        -10.9708     16.0041      1.3300
    87         H        -10.8454     15.8306      3.0953
    88         H        -14.0279     20.0603      2.8067
    89         H        -12.7982     19.0873      3.5726
    90         H        -12.9024     19.2203      1.7701
    91         H         -9.8504     22.4410      0.4880
    92         H         -8.4316     21.5627      1.0727
    93         H         -8.5189     23.2970      1.2846
    94         H         -9.2038     21.9783      4.7675
    95         H         -8.1615     23.0555      3.8246
    96         H         -8.0203     21.3196      3.6310

 General Reference for PM7:
 "Optimization of Parameters for Semiempirical Methods VI: More Modifications to the 
 NDDO Approximations and Re-optimization of Parameters", J. J. P. Stewart, J. Mol. Mod., 1:32, 19 (2013)
 https://link.springer.com/article/10.1007/s00894-012-1667-x

           Empirical Formula: C40 H56  =    96 atoms



      MOLECULAR POINT GROUP   :   C1  


      RHF CALCULATION, NO. OF DOUBLY OCCUPIED LEVELS = 108


          Geometry optimization using EF

          DIAGONAL MATRIX USED AS START HESSIAN

 CYCLE:     1 TIME:   0.243 TIME LEFT:  2.00D  GRAD.:   126.862 HEAT:  71.19154
 CYCLE:     2 TIME:   0.317 TIME LEFT:  2.00D  GRAD.:   530.723 HEAT:  69.82967
 CYCLE:     3 TIME:   0.162 TIME LEFT:  2.00D  GRAD.:   281.185 HEAT:  66.03715
 CYCLE:     4 TIME:   0.331 TIME LEFT:  2.00D  GRAD.:   298.275 HEAT:  65.21430
 CYCLE:     5 TIME:   0.174 TIME LEFT:  2.00D  GRAD.:   343.549 HEAT:  63.89976
 CYCLE:     6 TIME:   0.167 TIME LEFT:  2.00D  GRAD.:   103.474 HEAT:  60.96454
 CYCLE:     7 TIME:   0.178 TIME LEFT:  2.00D  GRAD.:    87.405 HEAT:  60.33588
 CYCLE:     8 TIME:   0.157 TIME LEFT:  2.00D  GRAD.:    67.528 HEAT:  59.53892
 CYCLE:     9 TIME:   0.463 TIME LEFT:  2.00D  GRAD.:    50.822 HEAT:  59.34043
 CYCLE:    10 TIME:   0.187 TIME LEFT:  2.00D  GRAD.:    39.756 HEAT:  59.17942
 CYCLE:    11 TIME:   0.342 TIME LEFT:  2.00D  GRAD.:    54.742 HEAT:  59.10691
 CYCLE:    12 TIME:   0.146 TIME LEFT:  2.00D  GRAD.:     8.496 HEAT:  58.91615
 CYCLE:    13 TIME:   0.166 TIME LEFT:  2.00D  GRAD.:    18.993 HEAT:  58.79573
 CYCLE:    14 TIME:   0.167 TIME LEFT:  2.00D  GRAD.:    24.217 HEAT:  58.64713
 CYCLE:    15 TIME:   0.188 TIME LEFT:  2.00D  GRAD.:    22.867 HEAT:  58.48187
 CYCLE:    16 TIME:   0.175 TIME LEFT:  2.00D  GRAD.:    49.825 HEAT:  58.24994
 CYCLE:    17 TIME:   0.177 TIME LEFT:  2.00D  GRAD.:    25.498 HEAT:  57.71545
 CYCLE:    18 TIME:   0.327 TIME LEFT:  2.00D  GRAD.:    25.000 HEAT:  56.71194
 CYCLE:    19 TIME:   0.201 TIME LEFT:  2.00D  GRAD.:    39.573 HEAT:  54.95720
 CYCLE:    20 TIME:   0.186 TIME LEFT:  2.00D  GRAD.:   120.774 HEAT:  52.42733
 CYCLE:    21 TIME:   0.347 TIME LEFT:  2.00D  GRAD.:    80.925 HEAT:  52.02080
 CYCLE:    22 TIME:   0.177 TIME LEFT:  2.00D  GRAD.:    52.398 HEAT:  48.19105
 CYCLE:    23 TIME:   0.166 TIME LEFT:  2.00D  GRAD.:   114.745 HEAT:  45.07100
 CYCLE:    24 TIME:   0.179 TIME LEFT:  2.00D  GRAD.:    61.582 HEAT:  41.87453
 CYCLE:    25 TIME:   0.172 TIME LEFT:  2.00D  GRAD.:   190.395 HEAT:  40.62185
 CYCLE:    26 TIME:   0.165 TIME LEFT:  2.00D  GRAD.:    56.208 HEAT:  39.14754
 CYCLE:    27 TIME:   0.163 TIME LEFT:  2.00D  GRAD.:    63.947 HEAT:  38.03253
 CYCLE:    28 TIME:   0.396 TIME LEFT:  2.00D  GRAD.:    94.718 HEAT:  37.81286
 CYCLE:    29 TIME:   0.182 TIME LEFT:  2.00D  GRAD.:    37.140 HEAT:  36.89620
 CYCLE:    30 TIME:   0.156 TIME LEFT:  2.00D  GRAD.:    24.733 HEAT:  36.33999
 CYCLE:    31 TIME:   0.219 TIME LEFT:  2.00D  GRAD.:    35.493 HEAT:  35.82817
 CYCLE:    32 TIME:   0.221 TIME LEFT:  2.00D  GRAD.:    37.988 HEAT:  35.14026
 CYCLE:    33 TIME:   0.270 TIME LEFT:  2.00D  GRAD.:    45.221 HEAT:  34.71107
 CYCLE:    34 TIME:   0.187 TIME LEFT:  2.00D  GRAD.:    27.345 HEAT:  33.82833
 CYCLE:    35 TIME:   0.149 TIME LEFT:  2.00D  GRAD.:    24.576 HEAT:  33.48346
 CYCLE:    36 TIME:   0.304 TIME LEFT:  2.00D  GRAD.:    24.659 HEAT:  33.20235
 CYCLE:    37 TIME:   0.167 TIME LEFT:  2.00D  GRAD.:    23.028 HEAT:  32.99078
 CYCLE:    38 TIME:   0.172 TIME LEFT:  2.00D  GRAD.:    18.228 HEAT:  32.87652
 CYCLE:    39 TIME:   0.170 TIME LEFT:  2.00D  GRAD.:    13.958 HEAT:  32.70137
 CYCLE:    40 TIME:   0.147 TIME LEFT:  2.00D  GRAD.:     5.959 HEAT:  32.61076
 CYCLE:    41 TIME:   0.145 TIME LEFT:  2.00D  GRAD.:    10.114 HEAT:  32.46334
 CYCLE:    42 TIME:   0.164 TIME LEFT:  2.00D  GRAD.:    11.638 HEAT:  32.36169
 CYCLE:    43 TIME:   0.168 TIME LEFT:  2.00D  GRAD.:    14.073 HEAT:  32.21676
 CYCLE:    44 TIME:   0.138 TIME LEFT:  2.00D  GRAD.:     7.449 HEAT:  32.14016
 CYCLE:    45 TIME:   0.147 TIME LEFT:  2.00D  GRAD.:     5.078 HEAT:  32.04170
 CYCLE:    46 TIME:   0.154 TIME LEFT:  2.00D  GRAD.:     7.445 HEAT:  32.00169
 CYCLE:    47 TIME:   0.171 TIME LEFT:  2.00D  GRAD.:     8.727 HEAT:  31.94439
 CYCLE:    48 TIME:   0.134 TIME LEFT:  2.00D  GRAD.:     8.887 HEAT:  31.89607
 CYCLE:    49 TIME:   0.154 TIME LEFT:  2.00D  GRAD.:     8.776 HEAT:  31.84833
 CYCLE:    50 TIME:   0.143 TIME LEFT:  2.00D  GRAD.:     7.428 HEAT:  31.79895
 CYCLE:    51 TIME:   0.168 TIME LEFT:  2.00D  GRAD.:     5.702 HEAT:  31.75723
 CYCLE:    52 TIME:   0.164 TIME LEFT:  2.00D  GRAD.:     4.237 HEAT:  31.70683
 CYCLE:    53 TIME:   0.152 TIME LEFT:  2.00D  GRAD.:     6.913 HEAT:  31.65468
 CYCLE:    54 TIME:   0.175 TIME LEFT:  2.00D  GRAD.:    11.304 HEAT:  31.59131
 CYCLE:    55 TIME:   0.163 TIME LEFT:  2.00D  GRAD.:    11.219 HEAT:  31.53749
 CYCLE:    56 TIME:   0.153 TIME LEFT:  2.00D  GRAD.:     6.164 HEAT:  31.48489
 CYCLE:    57 TIME:   0.151 TIME LEFT:  2.00D  GRAD.:     3.740 HEAT:  31.46103
 CYCLE:    58 TIME:   0.149 TIME LEFT:  2.00D  GRAD.:     6.191 HEAT:  31.42713
 CYCLE:    59 TIME:   0.155 TIME LEFT:  2.00D  GRAD.:     5.922 HEAT:  31.40631
 CYCLE:    60 TIME:   0.163 TIME LEFT:  2.00D  GRAD.:     5.029 HEAT:  31.36744
 CYCLE:    61 TIME:   0.149 TIME LEFT:  2.00D  GRAD.:     5.499 HEAT:  31.33613
 CYCLE:    62 TIME:   0.153 TIME LEFT:  2.00D  GRAD.:     7.004 HEAT:  31.27990
 CYCLE:    63 TIME:   0.178 TIME LEFT:  2.00D  GRAD.:     7.257 HEAT:  31.23106
 CYCLE:    64 TIME:   0.173 TIME LEFT:  2.00D  GRAD.:     5.941 HEAT:  31.19183
 CYCLE:    65 TIME:   0.140 TIME LEFT:  2.00D  GRAD.:     5.719 HEAT:  31.12420
 CYCLE:    66 TIME:   0.164 TIME LEFT:  2.00D  GRAD.:     5.004 HEAT:  31.09593
 CYCLE:    67 TIME:   0.179 TIME LEFT:  2.00D  GRAD.:     3.377 HEAT:  31.06225
 CYCLE:    68 TIME:   0.153 TIME LEFT:  2.00D  GRAD.:     2.627 HEAT:  31.03673
 CYCLE:    69 TIME:   0.166 TIME LEFT:  2.00D  GRAD.:     2.454 HEAT:  31.01975
 CYCLE:    70 TIME:   0.162 TIME LEFT:  2.00D  GRAD.:     2.195 HEAT:  31.01017
 CYCLE:    71 TIME:   0.161 TIME LEFT:  2.00D  GRAD.:     1.775 HEAT:  31.00357
 CYCLE:    72 TIME:   0.159 TIME LEFT:  2.00D  GRAD.:     1.127 HEAT:  30.99948
 CYCLE:    73 TIME:   0.186 TIME LEFT:  2.00D  GRAD.:     0.925 HEAT:  30.99603
 CYCLE:    74 TIME:   0.170 TIME LEFT:  2.00D  GRAD.:     1.213 HEAT:  30.99326
 CYCLE:    75 TIME:   0.154 TIME LEFT:  2.00D  GRAD.:     1.726 HEAT:  30.98919
 CYCLE:    76 TIME:   0.166 TIME LEFT:  2.00D  GRAD.:     1.810 HEAT:  30.98524
 CYCLE:    77 TIME:   0.164 TIME LEFT:  2.00D  GRAD.:     1.717 HEAT:  30.97875
 CYCLE:    78 TIME:   0.133 TIME LEFT:  2.00D  GRAD.:     1.439 HEAT:  30.97380
 CYCLE:    79 TIME:   0.167 TIME LEFT:  2.00D  GRAD.:     1.847 HEAT:  30.96300
 CYCLE:    80 TIME:   0.145 TIME LEFT:  2.00D  GRAD.:     1.787 HEAT:  30.95741
 CYCLE:    81 TIME:   0.170 TIME LEFT:  2.00D  GRAD.:     1.370 HEAT:  30.94948
 CYCLE:    82 TIME:   0.165 TIME LEFT:  2.00D  GRAD.:     1.607 HEAT:  30.94252
 CYCLE:    83 TIME:   0.163 TIME LEFT:  2.00D  GRAD.:     2.290 HEAT:  30.93424
 CYCLE:    84 TIME:   0.156 TIME LEFT:  2.00D  GRAD.:     2.158 HEAT:  30.92682
 CYCLE:    85 TIME:   0.155 TIME LEFT:  2.00D  GRAD.:     1.667 HEAT:  30.91763
 CYCLE:    86 TIME:   0.161 TIME LEFT:  2.00D  GRAD.:     1.544 HEAT:  30.91174
 CYCLE:    87 TIME:   0.160 TIME LEFT:  2.00D  GRAD.:     3.153 HEAT:  30.89860
 CYCLE:    88 TIME:   0.180 TIME LEFT:  2.00D  GRAD.:     3.749 HEAT:  30.88867
 CYCLE:    89 TIME:   0.160 TIME LEFT:  2.00D  GRAD.:     4.686 HEAT:  30.86300
 CYCLE:    90 TIME:   0.169 TIME LEFT:  2.00D  GRAD.:     4.027 HEAT:  30.83936
 CYCLE:    91 TIME:   0.176 TIME LEFT:  2.00D  GRAD.:     5.648 HEAT:  30.76594
 CYCLE:    92 TIME:   0.168 TIME LEFT:  2.00D  GRAD.:     5.242 HEAT:  30.73101
 CYCLE:    93 TIME:   0.178 TIME LEFT:  2.00D  GRAD.:     5.902 HEAT:  30.66728
 CYCLE:    94 TIME:   0.178 TIME LEFT:  2.00D  GRAD.:     3.649 HEAT:  30.64883
 CYCLE:    95 TIME:   0.168 TIME LEFT:  2.00D  GRAD.:     2.085 HEAT:  30.63865
 CYCLE:    96 TIME:   0.171 TIME LEFT:  2.00D  GRAD.:     1.573 HEAT:  30.63121
 CYCLE:    97 TIME:   0.331 TIME LEFT:  2.00D  GRAD.:     1.551 HEAT:  30.62723
 CYCLE:    98 TIME:   0.275 TIME LEFT:  2.00D  GRAD.:     1.456 HEAT:  30.62465
 CYCLE:    99 TIME:   0.166 TIME LEFT:  2.00D  GRAD.:     1.266 HEAT:  30.61965
 CYCLE:   100 TIME:   0.155 TIME LEFT:  2.00D  GRAD.:     1.188 HEAT:  30.61692
 CYCLE:   101 TIME:   0.237 TIME LEFT:  2.00D  GRAD.:     1.292 HEAT:  30.61088
 CYCLE:   102 TIME:   0.207 TIME LEFT:  2.00D  GRAD.:     1.138 HEAT:  30.60800
 CYCLE:   103 TIME:   0.193 TIME LEFT:  2.00D  GRAD.:     0.854 HEAT:  30.60328
 CYCLE:   104 TIME:   0.298 TIME LEFT:  2.00D  GRAD.:     0.851 HEAT:  30.60104
 CYCLE:   105 TIME:   0.166 TIME LEFT:  2.00D  GRAD.:     0.868 HEAT:  30.59868
 CYCLE:   106 TIME:   0.155 TIME LEFT:  2.00D  GRAD.:     0.951 HEAT:  30.59633
 CYCLE:   107 TIME:   0.174 TIME LEFT:  2.00D  GRAD.:     0.987 HEAT:  30.59363
 CYCLE:   108 TIME:   0.273 TIME LEFT:  2.00D  GRAD.:     0.902 HEAT:  30.59120
 CYCLE:   109 TIME:   0.182 TIME LEFT:  2.00D  GRAD.:     0.732 HEAT:  30.58917
 CYCLE:   110 TIME:   0.173 TIME LEFT:  2.00D  GRAD.:     0.623 HEAT:  30.58745
 CYCLE:   111 TIME:   0.164 TIME LEFT:  2.00D  GRAD.:     0.686 HEAT:  30.58570
 CYCLE:   112 TIME:   0.156 TIME LEFT:  2.00D  GRAD.:     0.769 HEAT:  30.58377
 CYCLE:   113 TIME:   0.170 TIME LEFT:  2.00D  GRAD.:     0.754 HEAT:  30.58169
 CYCLE:   114 TIME:   0.171 TIME LEFT:  2.00D  GRAD.:     0.726 HEAT:  30.57957
 CYCLE:   115 TIME:   0.157 TIME LEFT:  2.00D  GRAD.:     0.782 HEAT:  30.57741
 CYCLE:   116 TIME:   0.170 TIME LEFT:  2.00D  GRAD.:     0.812 HEAT:  30.57548
 CYCLE:   117 TIME:   0.161 TIME LEFT:  2.00D  GRAD.:     0.790 HEAT:  30.57356
 CYCLE:   118 TIME:   0.162 TIME LEFT:  2.00D  GRAD.:     0.772 HEAT:  30.57194
 CYCLE:   119 TIME:   0.165 TIME LEFT:  2.00D  GRAD.:     0.833 HEAT:  30.57004
 CYCLE:   120 TIME:   0.168 TIME LEFT:  2.00D  GRAD.:     1.010 HEAT:  30.56785
 CYCLE:   121 TIME:   0.170 TIME LEFT:  2.00D  GRAD.:     1.275 HEAT:  30.56457
 CYCLE:   122 TIME:   0.151 TIME LEFT:  2.00D  GRAD.:     1.648 HEAT:  30.55925
 CYCLE:   123 TIME:   0.172 TIME LEFT:  2.00D  GRAD.:     1.513 HEAT:  30.55498
 CYCLE:   124 TIME:   0.173 TIME LEFT:  2.00D  GRAD.:     1.306 HEAT:  30.54645
 CYCLE:   125 TIME:   0.154 TIME LEFT:  2.00D  GRAD.:     0.914 HEAT:  30.54410
 CYCLE:   126 TIME:   0.172 TIME LEFT:  2.00D  GRAD.:     1.376 HEAT:  30.54100
 CYCLE:   127 TIME:   0.158 TIME LEFT:  2.00D  GRAD.:     0.688 HEAT:  30.53998
 CYCLE:   128 TIME:   0.176 TIME LEFT:  2.00D  GRAD.:     0.393 HEAT:  30.53901
 CYCLE:   129 TIME:   0.162 TIME LEFT:  2.00D  GRAD.:     0.406 HEAT:  30.53816
 CYCLE:   130 TIME:   0.146 TIME LEFT:  2.00D  GRAD.:     0.805 HEAT:  30.53764
 CYCLE:   131 TIME:   0.156 TIME LEFT:  2.00D  GRAD.:     0.519 HEAT:  30.53665
 CYCLE:   132 TIME:   0.162 TIME LEFT:  2.00D  GRAD.:     0.395 HEAT:  30.53606
 CYCLE:   133 TIME:   0.163 TIME LEFT:  2.00D  GRAD.:     0.457 HEAT:  30.53514
 CYCLE:   134 TIME:   0.146 TIME LEFT:  2.00D  GRAD.:     0.592 HEAT:  30.53443
 CYCLE:   135 TIME:   0.161 TIME LEFT:  2.00D  GRAD.:     0.813 HEAT:  30.53323
 CYCLE:   136 TIME:   0.160 TIME LEFT:  2.00D  GRAD.:     0.679 HEAT:  30.53171
 CYCLE:   137 TIME:   0.159 TIME LEFT:  2.00D  GRAD.:     0.532 HEAT:  30.53062
 CYCLE:   138 TIME:   0.181 TIME LEFT:  2.00D  GRAD.:     0.432 HEAT:  30.52945
 CYCLE:   139 TIME:   0.157 TIME LEFT:  2.00D  GRAD.:     0.390 HEAT:  30.52886
 CYCLE:   140 TIME:   0.148 TIME LEFT:  2.00D  GRAD.:     0.672 HEAT:  30.53105
 CYCLE:   141 TIME:   0.173 TIME LEFT:  2.00D  GRAD.:     0.290 HEAT:  30.52841
 CYCLE:   142 TIME:   0.155 TIME LEFT:  2.00D  GRAD.:     0.164 HEAT:  30.52819
 CYCLE:   143 TIME:   0.165 TIME LEFT:  2.00D  GRAD.:     0.118 HEAT:  30.52801
 CYCLE:   144 TIME:   0.164 TIME LEFT:  2.00D  GRAD.:     0.160 HEAT:  30.52788
 CYCLE:   145 TIME:   0.132 TIME LEFT:  2.00D  GRAD.:     0.681 HEAT:  30.52977
 CYCLE:   146 TIME:   0.152 TIME LEFT:  2.00D  GRAD.:     0.203 HEAT:  30.52764
 CYCLE:   147 TIME:   0.138 TIME LEFT:  2.00D  GRAD.:     0.200 HEAT:  30.52752
 CYCLE:   148 TIME:   0.145 TIME LEFT:  2.00D  GRAD.:     1.314 HEAT:  30.52955
 CYCLE:   149 TIME:   0.169 TIME LEFT:  2.00D  GRAD.:     0.313 HEAT:  30.52696
 CYCLE:   150 TIME:   0.147 TIME LEFT:  2.00D  GRAD.:     0.284 HEAT:  30.52676
 CYCLE:   151 TIME:   0.152 TIME LEFT:  2.00D  GRAD.:     0.235 HEAT:  30.52630
 CYCLE:   152 TIME:   0.129 TIME LEFT:  2.00D  GRAD.:     0.266 HEAT:  30.52617
 CYCLE:   153 TIME:   0.167 TIME LEFT:  2.00D  GRAD.:     1.731 HEAT:  30.53406
 CYCLE:   154 TIME:   0.131 TIME LEFT:  2.00D  GRAD.:     0.330 HEAT:  30.52606
 CYCLE:   155 TIME:   0.162 TIME LEFT:  2.00D  GRAD.:     0.357 HEAT:  30.52604
 CYCLE:   156 TIME:   0.174 TIME LEFT:  2.00D  GRAD.:     0.297 HEAT:  30.52595
 CYCLE:   157 TIME:   0.179 TIME LEFT:  2.00D  GRAD.:     0.539 HEAT:  30.52668
 CYCLE:   158 TIME:   0.156 TIME LEFT:  2.00D  GRAD.:     0.242 HEAT:  30.52579
 CYCLE:   159 TIME:   0.153 TIME LEFT:  2.00D  GRAD.:     0.272 HEAT:  30.52574
 CYCLE:   160 TIME:   0.347 TIME LEFT:  2.00D  GRAD.:     1.266 HEAT:  30.53203
 CYCLE:   161 TIME:   0.154 TIME LEFT:  2.00D  GRAD.:     0.259 HEAT:  30.52550
 CYCLE:   162 TIME:   0.163 TIME LEFT:  2.00D  GRAD.:     0.228 HEAT:  30.52545
 CYCLE:   163 TIME:   0.189 TIME LEFT:  2.00D  GRAD.:     0.589 HEAT:  30.52682
 CYCLE:   164 TIME:   0.175 TIME LEFT:  2.00D  GRAD.:     0.155 HEAT:  30.52519
 CYCLE:   165 TIME:   0.180 TIME LEFT:  2.00D  GRAD.:     0.143 HEAT:  30.52512
 CYCLE:   166 TIME:   0.202 TIME LEFT:  2.00D  GRAD.:     0.134 HEAT:  30.52488
 CYCLE:   167 TIME:   0.185 TIME LEFT:  2.00D  GRAD.:     0.148 HEAT:  30.52470
 CYCLE:   168 TIME:   0.197 TIME LEFT:  2.00D  GRAD.:     0.140 HEAT:  30.52456
 CYCLE:   169 TIME:   0.200 TIME LEFT:  2.00D  GRAD.:     0.131 HEAT:  30.52437
 CYCLE:   170 TIME:   0.178 TIME LEFT:  2.00D  GRAD.:     0.123 HEAT:  30.52435
 CYCLE:   171 TIME:   0.183 TIME LEFT:  2.00D  GRAD.:     0.951 HEAT:  30.52499
 CYCLE:   172 TIME:   0.211 TIME LEFT:  2.00D  GRAD.:     1.770 HEAT:  30.53102
 CYCLE:   173 TIME:   0.202 TIME LEFT:  2.00D  GRAD.:     1.089 HEAT:  30.52774
 CYCLE:   174 TIME:   0.180 TIME LEFT:  2.00D  GRAD.:     0.914 HEAT:  30.52574
 CYCLE:   175 TIME:   0.196 TIME LEFT:  2.00D  GRAD.:     0.178 HEAT:  30.52500
 CYCLE:   176 TIME:   0.178 TIME LEFT:  2.00D  GRAD.:     0.112 HEAT:  30.52496
 CYCLE:   177 TIME:   0.170 TIME LEFT:  2.00D  GRAD.:     0.121 HEAT:  30.52495
 CYCLE:   178 TIME:   0.199 TIME LEFT:  2.00D  GRAD.:     0.099 HEAT:  30.52497
 CYCLE:   179 TIME:   0.180 TIME LEFT:  2.00D  GRAD.:     0.117 HEAT:  30.52495
 CYCLE:   180 TIME:   0.556 TIME LEFT:  2.00D  GRAD.:     2.078 HEAT:  30.53258
 CYCLE:   181 TIME:   0.185 TIME LEFT:  2.00D  GRAD.:     0.435 HEAT:  30.52494
 CYCLE:   182 TIME:   0.175 TIME LEFT:  2.00D  GRAD.:     0.458 HEAT:  30.52565
 CYCLE:   183 TIME:   0.205 TIME LEFT:  2.00D  GRAD.:     0.250 HEAT:  30.52450
 CYCLE:   184 TIME:   0.169 TIME LEFT:  2.00D  GRAD.:     0.193 HEAT:  30.52436
 CYCLE:   185 TIME:   0.193 TIME LEFT:  2.00D  GRAD.:     0.148 HEAT:  30.52431
 CYCLE:   186 TIME:   0.202 TIME LEFT:  2.00D  GRAD.:     0.260 HEAT:  30.52457
 CYCLE:   187 TIME:   0.187 TIME LEFT:  2.00D  GRAD.:     0.087 HEAT:  30.52432
 CYCLE:   188 TIME:   0.190 TIME LEFT:  2.00D  GRAD.:     0.126 HEAT:  30.52430
 CYCLE:   189 TIME:   0.206 TIME LEFT:  2.00D  GRAD.:     0.300 HEAT:  30.52436
 CYCLE:   190 TIME:   0.160 TIME LEFT:  2.00D  GRAD.:     0.196 HEAT:  30.52430
 CYCLE:   191 TIME:   0.566 TIME LEFT:  2.00D  GRAD.:     1.281 HEAT:  30.52784
 CYCLE:   192 TIME:   0.207 TIME LEFT:  2.00D  GRAD.:     0.091 HEAT:  30.52431
 CYCLE:   193 TIME:   0.193 TIME LEFT:  2.00D  GRAD.:     0.126 HEAT:  30.52428
 CYCLE:   194 TIME:   0.180 TIME LEFT:  2.00D  GRAD.:     0.228 HEAT:  30.52427
 CYCLE:   195 TIME:   0.159 TIME LEFT:  2.00D  GRAD.:     0.289 HEAT:  30.52437
 CYCLE:   196 TIME:   0.157 TIME LEFT:  2.00D  GRAD.:     0.201 HEAT:  30.52429
 CYCLE:   197 TIME:   0.175 TIME LEFT:  2.00D  GRAD.:     0.152 HEAT:  30.52425
 CYCLE:   198 TIME:   0.178 TIME LEFT:  2.00D  GRAD.:     0.102 HEAT:  30.52425
 CYCLE:   199 TIME:   0.164 TIME LEFT:  2.00D  GRAD.:     0.091 HEAT:  30.52424
 CYCLE:   200 TIME:   0.177 TIME LEFT:  2.00D  GRAD.:     0.166 HEAT:  30.52423
 CYCLE:   201 TIME:   0.179 TIME LEFT:  2.00D  GRAD.:     0.162 HEAT:  30.52420
 CYCLE:   202 TIME:   0.216 TIME LEFT:  2.00D  GRAD.:     0.860 HEAT:  30.52437
 CYCLE:   203 TIME:   0.189 TIME LEFT:  2.00D  GRAD.:     1.777 HEAT:  30.52765
 CYCLE:   204 TIME:   0.193 TIME LEFT:  2.00D  GRAD.:     0.195 HEAT:  30.52413
 CYCLE:   205 TIME:   0.148 TIME LEFT:  2.00D  GRAD.:     0.079 HEAT:  30.52411
 CYCLE:   206 TIME:   0.199 TIME LEFT:  2.00D  GRAD.:     0.913 HEAT:  30.52463
 CYCLE:   207 TIME:   0.192 TIME LEFT:  2.00D  GRAD.:     0.086 HEAT:  30.52411
 CYCLE:   208 TIME:   0.185 TIME LEFT:  2.00D  GRAD.:     0.083 HEAT:  30.52410
 CYCLE:   209 TIME:   0.168 TIME LEFT:  2.00D  GRAD.:     0.414 HEAT:  30.52411
 CYCLE:   210 TIME:   0.176 TIME LEFT:  2.00D  GRAD.:     0.367 HEAT:  30.52413
 CYCLE:   211 TIME:   0.162 TIME LEFT:  2.00D  GRAD.:     0.371 HEAT:  30.52415
 CYCLE:   212 TIME:   0.181 TIME LEFT:  2.00D  GRAD.:     2.281 HEAT:  30.52539
 CYCLE:   213 TIME:   0.177 TIME LEFT:  2.00D  GRAD.:     0.436 HEAT:  30.52415
 CYCLE:   214 TIME:   0.198 TIME LEFT:  2.00D  GRAD.:     0.198 HEAT:  30.52412
 CYCLE:   215 TIME:   0.176 TIME LEFT:  2.00D  GRAD.:     0.110 HEAT:  30.52410
 CYCLE:   216 TIME:   0.157 TIME LEFT:  2.00D  GRAD.:     0.345 HEAT:  30.52412
 CYCLE:   217 TIME:   0.181 TIME LEFT:  2.00D  GRAD.:     0.887 HEAT:  30.52429
 CYCLE:   218 TIME:   0.160 TIME LEFT:  2.00D  GRAD.:     0.321 HEAT:  30.52413
 CYCLE:   219 TIME:   0.180 TIME LEFT:  2.00D  GRAD.:     0.523 HEAT:  30.52429
 CYCLE:   220 TIME:   0.181 TIME LEFT:  2.00D  GRAD.:     0.171 HEAT:  30.52415
 CYCLE:   221 TIME:   0.180 TIME LEFT:  2.00D  GRAD.:     0.118 HEAT:  30.52413
 CYCLE:   222 TIME:   0.188 TIME LEFT:  2.00D  GRAD.:     0.210 HEAT:  30.52416


 HEAT OF FORMATION IS ESSENTIALLY STATIONARY

 -------------------------------------------------------------------------------
 PM7 BONDS EF PRECISE
 # optimize the geometry
 beta-carotene


     GEOMETRY OPTIMISED USING EIGENVECTOR FOLLOWING (EF).     
     SCF FIELD WAS ACHIEVED                                   


                              PM7 CALCULATION
                                                       MOPAC2016 (Version: 22.066W)
                                                       Sun May 15 01:26:31 2022




          FINAL HEAT OF FORMATION =         30.52416 KCAL/MOL =     127.71308 KJ/MOL


          COSMO AREA              =        665.96 SQUARE ANGSTROMS
          COSMO VOLUME            =        764.19 CUBIC ANGSTROMS

          GRADIENT NORM           =          0.20956          =       0.02139 PER ATOM
          IONIZATION POTENTIAL    =          7.863092 EV
          HOMO LUMO ENERGIES (EV) =         -7.863 -0.516
          NO. OF FILLED LEVELS    =        108
          MOLECULAR WEIGHT        =        536.8824         POINT GROUP:  C1  

          MOLECULAR DIMENSIONS (Angstroms)

            Atom       Atom       Distance
            H    64    H    43    28.95356
            H    79    H    84     7.31056
            H    76    H    95     6.69276


          SCF CALCULATIONS        =        235
 
          WALL-CLOCK TIME         =         40.923 SECONDS
          COMPUTATION TIME        =  1 MINUTE AND 18.375 SECONDS




  ATOM    CHEMICAL      BOND LENGTH      BOND ANGLE     TWIST ANGLE 
 NUMBER    SYMBOL       (ANGSTROMS)      (DEGREES)       (DEGREES) 
   (I)                     NA:I           NB:NA:I       NC:NB:NA:I       NA    NB    NC 
     1       C          0.00000000       0.0000000       0.0000000        0     0     0
     2       C          1.53014398  *    0.0000000       0.0000000        1     0     0
     3       C          1.53290041  *  109.6693057  *    0.0000000        2     1     0
     4       C          1.49820126  *  112.0162327  *   47.4772915  *     3     2     1
     5       C          1.34158632  *  123.2376855  *  -18.0280702  *     4     3     2
     6       C          1.51253223  *  123.7732635  *    1.3557177  *     5     4     3
     7       C          1.46737637  *  121.4377956  * -178.9282100  *     5     4     3
     8       C          1.33902501  *  122.7976428  *  -86.3662978  *     7     5     4
     9       C          1.46247603  *  122.9708317  * -179.2689195  *     8     7     5
    10       C          1.34756676  *  121.0666460  *   45.2388979  *     9     8     7
    11       C          1.44984941  *  124.3095515  *  179.2385014  *    10     9     8
    12       C          1.34442771  *  122.3811815  *  177.1196036  *    11    10     9
    13       C          1.46087948  *  122.9817468  * -179.8028058  *    12    11    10
    14       C          1.34848436  *  121.3252207  *  -41.8531484  *    13    12    11
    15       C          1.44902783  *  124.5236607  * -179.4716753  *    14    13    12
    16       C          1.34732465  *  122.1373804  * -179.1123867  *    15    14    13
    17       C          1.44902349  *  122.1391445  *  179.7814080  *    16    15    14
    18       C          1.34848500  *  124.5348262  * -179.1943891  *    17    16    15
    19       C          1.46089288  *  121.3250374  * -179.4418617  *    18    17    16
    20       C          1.34446549  *  122.9842834  *  -41.8101811  *    19    18    17
    21       C          1.44984771  *  122.3758359  * -179.8276108  *    20    19    18
    22       C          1.34761160  *  124.3170631  *  177.2488300  *    21    20    19
    23       C          1.46236199  *  121.0855047  *  179.2122957  *    22    21    20
    24       C          1.33946464  *  122.9977513  *   44.9045042  *    23    22    21
    25       C          1.46684106  *  122.8683731  * -179.2412367  *    24    23    22
    26       C          1.51372671  *  114.3154868  *  104.6474202  *    25    24    23
    27       C          1.54577525  *  110.9674748  * -166.8577426  *    26    25    24
    28       C          1.52973342  *  111.1715750  *  -44.9742496  *    27    26    25
    29       C          1.53258855  *  109.5746428  *   62.4947686  *    28    27    26
    30       C          1.34182101  *  121.9894159  *  -77.4926932  *    25    24    23
    31       C          1.49268022  *  115.1740428  * -135.6309412  *     9     8     7
    32       C          1.54083614  *  110.0769023  * -134.3563376  *     6     5     4
    33       C          1.53973263  *  108.6542503  *  106.1900437  *     6     5     4
    34       C          1.49451606  *  114.2051627  *  162.4743084  *     4     3     2
    35       C          1.49366647  *  115.2474961  *  139.0323283  *    13    12    11
    36       C          1.49366250  *  123.4309913  *   -0.4401409  *    18    17    16
    37       C          1.49279906  *  123.7172459  *    0.1964468  *    22    21    20
    38       C          1.49438702  *  123.0504416  *    0.3746871  *    30    25    24
    39       C          1.54048307  *  108.5601625  *   72.2243548  *    26    25    24
    40       C          1.53998654  *  110.1579096  *  -47.3408407  *    26    25    24
    41       H          1.10407963  *  110.4512613  *  175.2118256  *     1     2     3
    42       H          1.10640064  *  109.5459648  *   58.7525777  *     1     2     3
    43       H          1.10457797  *  110.4493978  * -121.8370059  *     2     1     3
    44       H          1.10632852  *  110.2168134  *  121.2951441  *     2     1     3
    45       H          1.11084924  *  109.8283874  *  -73.6834100  *     3     2     1
    46       H          1.10838572  *  109.7475641  *  170.5108610  *     3     2     1
    47       H          1.09224075  *  114.8920446  *   93.6324775  *     7     5     4
    48       H          1.09108241  *  121.4502028  *    1.3614965  *     8     7     5
    49       H          1.09247132  *  119.8927062  *   -0.2078913  *    10     9     8
    50       H          1.09198465  *  116.8440965  *   -2.4423742  *    11    10     9
    51       H          1.09062742  *  121.6421344  *   -0.5563666  *    12    11    10
    52       H          1.09287731  *  119.7601018  *   -0.1003501  *    14    13    12
    53       H          1.09038483  *  116.9009901  *    0.9350681  *    15    14    13
    54       H          1.09038401  *  120.9597621  *   -0.2806869  *    16    15    14
    55       H          1.09291726  *  115.7052130  *    1.4110426  *    17    16    15
    56       H          1.09062418  *  115.3664834  *  138.8993793  *    19    18    17
    57       H          1.09196049  *  120.7675437  *   -0.2613299  *    20    19    18
    58       H          1.09245729  *  115.7863322  *   -3.2945273  *    21    20    19
    59       H          1.09105785  *  115.5828407  * -135.4147221  *    23    22    21
    60       H          1.09214142  *  122.2359777  *    0.4071119  *    24    23    22
    61       H          1.10404996  *  109.9438397  * -167.6492185  *    27    26    25
    62       H          1.10664508  *  109.5407475  *   76.2348568  *    27    26    25
    63       H          1.10625114  *  110.2600983  *  -58.8149473  *    28    27    26
    64       H          1.10461928  *  110.4728494  * -175.7041386  *    28    27    26
    65       H          1.10824224  *  109.7266405  * -170.9843645  *    29    28    27
    66       H          1.11093161  *  109.8199305  *   73.2615975  *    29    28    27
    67       H          1.09829911  *  112.6168576  *    9.7800407  *    31     9     8
    68       H          1.10016562  *  111.1351852  * -110.4595413  *    31     9     8
    69       H          1.09993691  *  111.5445248  *  129.7607963  *    31     9     8
    70       H          1.09475812  *  111.1702392  *   54.3355761  *    32     6     5
    71       H          1.09575448  *  111.3986683  *  -65.7801445  *    32     6     5
    72       H          1.09440482  *  111.1142838  *  174.5721431  *    32     6     5
    73       H          1.09481529  *  111.1613372  *  -58.6870629  *    33     6     5
    74       H          1.09368005  *  111.3428355  * -179.1424236  *    33     6     5
    75       H          1.09632482  *  111.1062110  *   60.7996330  *    33     6     5
    76       H          1.09776136  *  111.8945189  *   40.5989324  *    34     4     3
    77       H          1.09972486  *  110.6397924  *  -79.3119394  *    34     4     3
    78       H          1.09943758  *  112.6530020  *  161.1317462  *    34     4     3
    79       H          1.09804973  *  112.6482955  *  -10.1583037  *    35    13    12
    80       H          1.09972864  *  111.4790846  * -130.0840270  *    35    13    12
    81       H          1.10008249  *  111.0688136  *  110.1721012  *    35    13    12
    82       H          1.09970075  *  111.5055453  *   50.2553977  *    36    18    17
    83       H          1.10009235  *  111.0516858  *  -69.4942969  *    36    18    17
    84       H          1.09806796  *  112.6376266  *  170.1873867  *    36    18    17
    85       H          1.09995833  *  111.5397297  *  -51.1597669  *    37    22    21
    86       H          1.09818534  *  112.6367655  * -171.1706122  *    37    22    21
    87       H          1.10020291  *  111.1232188  *   68.6067664  *    37    22    21
    88       H          1.09965609  *  110.7397946  * -109.6766859  *    38    30    25
    89       H          1.09809421  *  111.5707148  *  130.5420766  *    38    30    25
    90       H          1.09921315  *  112.8853168  *   10.0493278  *    38    30    25
    91       H          1.09516537  *  111.0782962  *   56.2932484  *    39    26    25
    92       H          1.09479005  *  111.3693490  *  -63.4696764  *    39    26    25
    93       H          1.09406467  *  111.2320421  *  176.4836135  *    39    26    25
    94       H          1.09530372  *  111.1042278  *  -54.8382286  *    40    26    25
    95       H          1.09388050  *  111.2746939  * -175.3002401  *    40    26    25
    96       H          1.09596798  *  111.5168758  *   64.5901444  *    40    26    25

                             CARTESIAN COORDINATES

   1    C        0.000000000     0.000000000     0.000000000
   2    C        1.530143975     0.000000000     0.000000000
   3    C        2.046104226     1.443457200     0.000000000
   4    C        1.351153568     2.288296357     1.023668601
   5    C        0.181518957     1.948612587     1.586184073
   6    C       -0.558024640     0.665472880     1.278968359
   7    C       -0.476234213     2.817693764     2.568656512
   8    C       -0.197871668     2.773199919     3.877672387
   9    C       -0.862185943     3.626687077     4.862092195
  10    C       -2.198161249     3.801877946     4.841737569
  11    C       -2.929964960     4.617662814     5.790959185
  12    C       -4.257341129     4.811227322     5.701008302
  13    C       -5.007013707     5.633712781     6.647410728
  14    C       -4.762609742     5.577143094     7.972354748
  15    C       -5.470081224     6.351966712     8.971761630
  16    C       -5.174046884     6.270496861    10.283634359
  17    C       -5.878375840     7.048759776    11.282582122
  18    C       -5.612130154     7.016754483    12.604134503
  19    C       -6.376047421     7.823674355    13.552564121
  20    C       -6.730595705     9.097746618    13.310442603
  21    C       -7.485937969     9.887811516    14.262972867
  22    C       -7.816071587    11.182057109    14.084095341
  23    C       -8.596192379    11.907683480    15.085784162
  24    C       -8.343472339    11.836334346    16.399255674
  25    C       -9.137966258    12.552701069    17.402859585
  26    C      -10.093996334    11.675838504    18.182915406
  27    C      -11.111032389    12.531716917    18.971921691
  28    C      -10.419115982    13.695761492    19.683494783
  29    C       -9.779231557    14.624517809    18.645811169
  30    C       -8.982908149    13.866600316    17.626710825
  31    C        0.040822945     4.250979096     5.873491551
  32    C       -2.053782997     0.958224288     1.052739382
  33    C       -0.406261429    -0.289435502     2.477256500
  34    C        2.067533508     3.555898932     1.360657843
  35    C       -6.056624378     6.506408291     6.040978943
  36    C       -4.551101494     6.157043479    13.209231885
  37    C       -7.447099219    11.971464879    12.872012917
  38    C       -8.004107140    14.711125379    16.877098545
  39    C       -9.277057248    10.802693738    19.154160394
  40    C      -10.882450915    10.765512792    17.223121157
  41    H       -0.385776986    -1.030878965    -0.086351060
  42    H       -0.370160689     0.540854959    -0.891391809
  43    H        1.916061427    -0.545950761    -0.879259905
  44    H        1.912461886    -0.539273687     0.887118758
  45    H        1.896479201     1.897093383    -1.002902085
  46    H        3.141047530     1.449775696     0.171982948
  47    H       -1.213509545     3.507295935     2.151686741
  48    H        0.557160828     2.093907631     4.276356147
  49    H       -2.800974650     3.304258539     4.078530843
  50    H       -2.350506073     5.082658486     6.591232195
  51    H       -4.847231847     4.367034773     4.898393772
  52    H       -3.990827653     4.903658828     8.353343160
  53    H       -6.262049891     7.011251709     8.615295640
  54    H       -4.385657196     5.607221643    10.640628733
  55    H       -6.681046481     7.687962452    10.906273831
  56    H       -6.634601631     7.325621496    14.487740128
  57    H       -6.449942815     9.587690524    12.375794736
  58    H       -7.799513391     9.366284533    15.170245145
  59    H       -9.406377914    12.525306120    14.695209071
  60    H       -7.528706265    11.231917405    16.803742118
  61    H      -11.650773756    11.900160350    19.699068075
  62    H      -11.879561662    12.925162768    18.279659852
  63    H       -9.647961246    13.315348847    20.379481980
  64    H      -11.142369681    14.253724873    20.304594373
  65    H       -9.143106036    15.374459926    19.156821939
  66    H      -10.568486552    15.206164397    18.123381425
  67    H        1.103555924     4.115824858     5.631431889
  68    H       -0.122220057     3.818121079     6.871697599
  69    H       -0.130319284     5.334564815     5.953576139
  70    H       -2.194836008     1.723001568     0.282210280
  71    H       -2.534108383     1.317069657     1.969906433
  72    H       -2.588202251     0.057446656     0.735378981
  73    H        0.647967502    -0.502421963     2.681850359
  74    H       -0.913902388    -1.240836092     2.294845919
  75    H       -0.834069235     0.147730361     3.387088685
  76    H        2.494962427     4.033851917     0.469621666
  77    H        2.893117202     3.360348883     2.060348146
  78    H        1.412612986     4.298032240     1.839281125
  79    H       -5.998397583     6.538506096     4.944944004
  80    H       -5.969557993     7.544734344     6.392691242
  81    H       -7.064813295     6.153339901     6.303808364
  82    H       -3.590059321     6.275899168    12.688066844
  83    H       -4.825711197     5.093174690    13.154680210
  84    H       -4.368163010     6.392356968    14.266073556
  85    H       -6.372595403    11.892593921    12.650361725
  86    H       -7.670091427    13.041302853    12.980328296
  87    H       -7.992301984    11.614805323    11.985449689
  88    H       -7.172508887    15.015188844    17.529197672
  89    H       -8.473094461    15.625472107    16.490017366
  90    H       -7.560063320    14.189727867    16.017308298
  91    H       -8.654984022    11.420186410    19.810753788
  92    H       -8.610651624    10.122088434    18.614488992
  93    H       -9.931147475    10.194157728    19.785688223
  94    H      -11.391418798    11.352885561    16.451347117
  95    H      -11.637430844    10.182949714    17.759031697
  96    H      -10.223106284    10.057920075    16.707637865


           Empirical Formula: C40 H56  =    96 atoms



      MOLECULAR POINT GROUP   :   C1  


                  EIGENVALUES  
 -30.71833 -30.71649 -29.55056 -29.46728 -29.14464 -28.93971 -28.04026 -28.03183
 -27.75721 -27.53838 -27.21120 -26.42318 -26.01460 -25.28686 -25.26285 -24.41148
 -23.98672 -23.93458 -23.88855 -23.86154 -23.53876 -23.41360 -23.12503 -23.10052
 -22.42347 -21.46093 -21.20656 -20.32870 -19.93241 -19.53218 -19.42779 -19.09020
 -19.05044 -19.00458 -18.44857 -17.97030 -17.53878 -17.12711 -16.99104 -16.90196
 -16.43600 -16.34026 -16.13942 -15.96786 -15.52801 -15.46645 -15.44563 -15.37632
 -15.17443 -15.11924 -14.91131 -14.88187 -14.62619 -14.54284 -14.49804 -14.47657
 -14.37417 -14.36255 -14.32358 -14.29102 -14.17140 -13.92590 -13.77415 -13.69883
 -13.52984 -13.47764 -13.46171 -13.44490 -13.33326 -13.27724 -13.16029 -13.11507
 -13.08713 -13.02529 -13.01360 -12.75150 -12.73319 -12.60590 -12.41680 -12.39832
 -12.36060 -12.20292 -12.14939 -12.11252 -12.08722 -12.03420 -12.01564 -12.01067
 -11.93138 -11.71398 -11.62790 -11.55651 -11.50190 -11.28741 -11.26021 -11.24919
 -11.18566 -11.16908 -10.64942 -10.63025 -10.42289 -10.21750  -9.92439  -9.10395
  -9.06770  -8.96117  -8.53991  -7.86309  -0.51614  -0.07663   0.39367   1.00828
   1.19262   1.31065   1.40314   1.66478   2.16741   2.31131   2.60980   3.70299
   3.70905   3.91603   3.91973   3.99722   4.06146   4.19059   4.31452   4.32951
   4.33608   4.46354   4.47518   4.48706   4.48926   4.57348   4.58338   4.63350
   4.66409   4.76764   4.77527   4.85240   4.87111   4.99208   5.21827   5.28149
   5.33668   5.35495   5.37265   5.42522   5.44753   5.47622   5.53281   5.64859
   5.65225   5.65460   5.65905   5.67641   5.70733   5.71087   5.73279   5.74466
   5.75047   5.75200   5.76194   5.78727   5.79219   5.80450   5.80934   5.81633
   5.93341   5.93956   6.00503   6.01456   6.01888   6.03559   6.04395   6.04986
   6.06555   6.07784   6.08724   6.10989   6.11410   6.12018   6.15109   6.17665
   6.18754   6.20469   6.26517   6.27534   6.32574   6.32841   6.38152   6.40281
   6.45363   6.46999   6.52918   6.56710   6.56835   6.61901   6.62027   6.62752
   6.63541   6.68192   6.68726   6.69312   6.79181   6.79478   6.91203   6.91861
   6.99214   7.00275   7.01465   7.02003   7.16669   7.18588   7.28243   7.30131


              NET ATOMIC CHARGES AND DIPOLE CONTRIBUTIONS

  ATOM NO.   TYPE          CHARGE      No. of ELECS.   s-Pop       p-Pop       
    1          C          -0.292129        4.2921     1.06522     3.22691
    2          C          -0.262157        4.2622     1.05713     3.20503
    3          C          -0.281318        4.2813     1.05581     3.22551
    4          C           0.021967        3.9780     1.07158     2.90645
    5          C          -0.110433        4.1104     1.07295     3.03749
    6          C           0.118997        3.8810     1.05089     2.83011
    7          C          -0.114076        4.1141     1.08948     3.02460
    8          C          -0.206753        4.2068     1.08494     3.12181
    9          C           0.064080        3.9359     1.07107     2.86485
   10          C          -0.230396        4.2304     1.07789     3.15251
   11          C          -0.122472        4.1225     1.08363     3.03884
   12          C          -0.193371        4.1934     1.08722     3.10615
   13          C           0.045010        3.9550     1.06994     2.88505
   14          C          -0.217304        4.2173     1.07920     3.13810
   15          C          -0.148142        4.1481     1.08228     3.06586
   16          C          -0.148144        4.1481     1.08228     3.06586
   17          C          -0.217242        4.2172     1.07921     3.13804
   18          C           0.044849        3.9552     1.06996     2.88519
   19          C          -0.193203        4.1932     1.08721     3.10599
   20          C          -0.122522        4.1225     1.08362     3.03890
   21          C          -0.230200        4.2302     1.07787     3.15233
   22          C           0.064505        3.9355     1.07098     2.86452
   23          C          -0.208549        4.2085     1.08486     3.12369
   24          C          -0.111822        4.1118     1.08960     3.02222
   25          C          -0.110233        4.1102     1.07299     3.03724
   26          C           0.117813        3.8822     1.05115     2.83103
   27          C          -0.291638        4.2916     1.06515     3.22649
   28          C          -0.262656        4.2627     1.05703     3.20562
   29          C          -0.281741        4.2817     1.05592     3.22583
   30          C           0.024011        3.9760     1.07185     2.90414
   31          C          -0.454083        4.4541     1.04951     3.40458
   32          C          -0.463478        4.4635     1.05982     3.40366
   33          C          -0.459634        4.4596     1.05923     3.40040
   34          C          -0.456700        4.4567     1.05026     3.40644
   35          C          -0.452822        4.4528     1.04951     3.40331
   36          C          -0.452819        4.4528     1.04951     3.40331
   37          C          -0.454320        4.4543     1.04954     3.40477
   38          C          -0.459635        4.4596     1.05047     3.40917
   39          C          -0.457904        4.4579     1.05917     3.39874
   40          C          -0.463147        4.4631     1.05971     3.40344
   41          H           0.136352        0.8636     0.86365
   42          H           0.141169        0.8588     0.85883
   43          H           0.131036        0.8690     0.86896
   44          H           0.140465        0.8595     0.85954
   45          H           0.148413        0.8516     0.85159
   46          H           0.143585        0.8564     0.85641
   47          H           0.155664        0.8443     0.84434
   48          H           0.159881        0.8401     0.84012
   49          H           0.155651        0.8443     0.84435
   50          H           0.149879        0.8501     0.85012
   51          H           0.154716        0.8453     0.84528
   52          H           0.153780        0.8462     0.84622
   53          H           0.147289        0.8527     0.85271
   54          H           0.147287        0.8527     0.85271
   55          H           0.153761        0.8462     0.84624
   56          H           0.154755        0.8452     0.84524
   57          H           0.149806        0.8502     0.85019
   58          H           0.155592        0.8444     0.84441
   59          H           0.160064        0.8399     0.83994
   60          H           0.155249        0.8448     0.84475
   61          H           0.136177        0.8638     0.86382
   62          H           0.141842        0.8582     0.85816
   63          H           0.140343        0.8597     0.85966
   64          H           0.131155        0.8688     0.86885
   65          H           0.143303        0.8567     0.85670
   66          H           0.148477        0.8515     0.85152
   67          H           0.153873        0.8461     0.84613
   68          H           0.160665        0.8393     0.83934
   69          H           0.160634        0.8394     0.83937
   70          H           0.145902        0.8541     0.85410
   71          H           0.151027        0.8490     0.84897
   72          H           0.144303        0.8557     0.85570
   73          H           0.145806        0.8542     0.85419
   74          H           0.143495        0.8565     0.85651
   75          H           0.152049        0.8480     0.84795
   76          H           0.151549        0.8485     0.84845
   77          H           0.156511        0.8435     0.84349
   78          H           0.159786        0.8402     0.84021
   79          H           0.152849        0.8472     0.84715
   80          H           0.158989        0.8410     0.84101
   81          H           0.159899        0.8401     0.84010
   82          H           0.158940        0.8411     0.84106
   83          H           0.159909        0.8401     0.84009
   84          H           0.152891        0.8471     0.84711
   85          H           0.160812        0.8392     0.83919
   86          H           0.153202        0.8468     0.84680
   87          H           0.160800        0.8392     0.83920
   88          H           0.156420        0.8436     0.84358
   89          H           0.152271        0.8477     0.84773
   90          H           0.161234        0.8388     0.83877
   91          H           0.146801        0.8532     0.85320
   92          H           0.146166        0.8538     0.85383
   93          H           0.143408        0.8566     0.85659
   94          H           0.147726        0.8523     0.85227
   95          H           0.143650        0.8564     0.85635
   96          H           0.152552        0.8474     0.84745
 DIPOLE           X         Y         Z       TOTAL
 POINT-CHG.     0.873     1.012    -0.122     1.342
 HYBRID         0.206     0.218    -0.014     0.300
 SUM            1.079     1.229    -0.136     1.641


          ATOMIC ORBITAL ELECTRON POPULATIONS

     Atom    s        px        py        pz   
    1  C   1.06522   1.01452   1.13490   1.07749
    2  C   1.05713   1.01959   1.02761   1.15782
    3  C   1.05581   1.10787   1.01861   1.09903
    4  C   1.07158   0.96823   0.96116   0.97706
    5  C   1.07295   1.00433   1.00776   1.02539
    6  C   1.05089   0.94102   0.93982   0.94927
    7  C   1.08948   1.01813   1.01178   0.99469
    8  C   1.08494   1.06867   1.05212   1.00102
    9  C   1.07107   0.96840   0.94401   0.95244
   10  C   1.07789   1.01364   1.06719   1.07167
   11  C   1.08363   1.00799   0.99717   1.03369
   12  C   1.08722   1.01860   1.02860   1.05895
   13  C   1.06994   0.95816   0.95480   0.97209
   14  C   1.07920   1.07469   1.07019   0.99322
   15  C   1.08228   1.04466   1.03066   0.99053
   16  C   1.08228   1.04472   1.03093   0.99021
   17  C   1.07921   1.07912   1.06717   0.99174
   18  C   1.06996   0.95520   0.95906   0.97094
   19  C   1.08721   1.02129   1.01428   1.07042
   20  C   1.08362   0.98404   1.00124   1.05361
   21  C   1.07787   1.06175   1.01295   1.07763
   22  C   1.07098   0.94302   0.96788   0.95363
   23  C   1.08486   1.06521   1.06077   0.99771
   24  C   1.08960   1.02880   1.00340   0.99002
   25  C   1.07299   1.02904   0.98774   1.02046
   26  C   1.05115   0.94261   0.94419   0.94423
   27  C   1.06515   1.06752   1.05288   1.10609
   28  C   1.05703   1.11242   1.04053   1.05267
   29  C   1.05592   1.10719   1.06683   1.05181
   30  C   1.07185   0.96762   0.96520   0.97132
   31  C   1.04951   1.12971   1.15751   1.11736
   32  C   1.05982   1.05805   1.17016   1.17545
   33  C   1.05923   1.17479   1.12287   1.10275
   34  C   1.05026   1.15301   1.08338   1.17005
   35  C   1.04951   1.11166   1.13319   1.15846
   36  C   1.04951   1.11007   1.13389   1.15935
   37  C   1.04954   1.17322   1.14116   1.09039
   38  C   1.05047   1.11992   1.13924   1.15001
   39  C   1.05917   1.14089   1.13146   1.12638
   40  C   1.05971   1.14444   1.13207   1.12693
   41  H   0.86365
   42  H   0.85883
   43  H   0.86896
   44  H   0.85954
   45  H   0.85159
   46  H   0.85641
   47  H   0.84434
   48  H   0.84012
   49  H   0.84435
   50  H   0.85012
   51  H   0.84528
   52  H   0.84622
   53  H   0.85271
   54  H   0.85271
   55  H   0.84624
   56  H   0.84524
   57  H   0.85019
   58  H   0.84441
   59  H   0.83994
   60  H   0.84475
   61  H   0.86382
   62  H   0.85816
   63  H   0.85966
   64  H   0.86885
   65  H   0.85670
   66  H   0.85152
   67  H   0.84613
   68  H   0.83934
   69  H   0.83937
   70  H   0.85410
   71  H   0.84897
   72  H   0.85570
   73  H   0.85419
   74  H   0.85651
   75  H   0.84795
   76  H   0.84845
   77  H   0.84349
   78  H   0.84021
   79  H   0.84715
   80  H   0.84101
   81  H   0.84010
   82  H   0.84106
   83  H   0.84009
   84  H   0.84711
   85  H   0.83919
   86  H   0.84680
   87  H   0.83920
   88  H   0.84358
   89  H   0.84773
   90  H   0.83877
   91  H   0.85320
   92  H   0.85383
   93  H   0.85659
   94  H   0.85227
   95  H   0.85635
   96  H   0.84745

          BONDING CONTRIBUTION OF EACH M.O.

  1.9561  1.9562  1.9406  1.9424  1.9475  1.9498  1.9918  1.9920  1.9574  1.9774
  1.9706  1.9772  1.9890  2.0100  2.0131  2.0070  2.0205  2.0292  2.0351  2.0257
  2.0026  1.9893  2.0138  2.0118  1.9832  1.9771  1.9739  1.9760  1.9742  1.9747
  1.9671  1.9699  1.9711  1.9503  1.9500  1.9579  1.9624  1.9638  1.9581  1.9548
  1.9729  1.9766  1.9810  1.9862  1.9769  1.9785  1.9712  1.9823  1.9578  1.9511
  1.9766  1.9748  1.9493  1.9498  1.9423  1.9537  1.9410  1.9436  1.9447  1.9460
  1.9640  1.9813  1.9534  1.9651  1.9666  1.9613  1.9408  1.9476  1.9344  1.9436
  1.9898  1.9590  1.9526  1.9428  1.9508  1.9369  1.9342  1.9860  2.0098  1.9911
  1.9886  1.9692  1.9678  1.9954  2.0011  1.9867  1.9733  1.9744  1.9712  2.0170
  1.9769  2.0173  1.9691  2.0245  1.9881  1.9832  1.9984  1.9965  2.0166  2.0177
  1.9819  1.9946  1.9712  1.9691  1.9605  1.9753  1.9754  1.9955 -1.9884 -2.0012
 -1.9972 -2.0160 -2.0130 -2.0307 -2.0201 -2.0076 -2.0205 -2.0164 -2.0264 -1.9568
 -1.9569 -1.9756 -1.9758 -1.9616 -1.9608 -1.9635 -1.9609 -1.9641 -1.9669 -1.9840
 -1.9773 -1.9866 -1.9911 -1.9942 -1.9951 -1.9862 -1.9865 -2.0168 -2.0146 -1.9886
 -1.9917 -1.9733 -1.9838 -1.9804 -1.9931 -2.0141 -2.0155 -1.9786 -1.9830 -1.9720
 -1.9730 -1.9585 -1.9618 -1.9706 -1.9699 -1.9865 -1.9696 -1.9661 -1.9835 -1.9583
 -1.9532 -1.9642 -1.9711 -1.9739 -1.9667 -1.9749 -1.9636 -1.9752 -1.9815 -1.9811
 -1.9759 -1.9728 -1.9816 -1.9843 -1.9791 -1.9744 -1.9815 -1.9785 -1.9817 -1.9776
 -1.9787 -1.9779 -1.9817 -1.9936 -1.9941 -1.9882 -1.9980 -1.9951 -1.9981 -1.9953
 -1.9652 -1.9744 -1.9885 -1.9716 -1.9711 -1.9649 -1.9656 -1.9726 -1.9710 -1.9707
 -1.9797 -1.9486 -1.9485 -1.9753 -1.9493 -1.9494 -1.9162 -1.9159 -1.9150 -1.9240
 -1.9071 -1.9068 -1.9176 -1.9185 -1.9139 -1.9147





            (VALENCIES)   BOND ORDERS

     1  C     (3.961)     2  C 1.003     6  C 0.989    41  H 0.970    42  H 0.969
 
     2  C     (3.963)     1  C 1.003     3  C 1.001    43  H 0.972    44  H 0.969
 
     3  C     (3.962)     4  C 1.007     2  C 1.001    46  H 0.963    45  H 0.957
 
     4  C     (3.991)     5  C 1.902    34  C 1.011     3  C 1.007     8  C 0.016    33  C 0.013
 
     5  C     (3.988)     4  C 1.902     7  C 1.014     6  C 0.981    45  H 0.012    77  H 0.012
 
     6  C     (3.987)    32  C 0.991     1  C 0.989    33  C 0.989     5  C 0.981     8  C 0.013
 
     7  C     (3.974)     8  C 1.919     5  C 1.014    47  H 0.954    10  C 0.042
 
     8  C     (3.973)     7  C 1.919     9  C 1.040    48  H 0.956     4  C 0.016     6  C 0.013
 
     9  C     (3.988)    10  C 1.839     8  C 1.040    31  C 1.012    12  C 0.069
 
    10  C     (3.969)     9  C 1.839    11  C 1.073    49  H 0.960     7  C 0.042    68  H 0.010
 
    11  C     (3.975)    12  C 1.865    10  C 1.073    50  H 0.961    14  C 0.044
 
    12  C     (3.975)    11  C 1.865    13  C 1.048    51  H 0.958     9  C 0.069
 
    13  C     (3.991)    14  C 1.832    12  C 1.048    35  C 1.011    16  C 0.069    18  C 0.010
 
    14  C     (3.971)    13  C 1.832    15  C 1.078    52  H 0.960    11  C 0.044    81  H 0.010
 
    15  C     (3.976)    16  C 1.841    14  C 1.078    53  H 0.963    18  C 0.069
 
    16  C     (3.976)    15  C 1.841    17  C 1.078    54  H 0.963    13  C 0.069
 
    17  C     (3.971)    18  C 1.832    16  C 1.078    55  H 0.960    20  C 0.044    83  H 0.010
 
    18  C     (3.991)    17  C 1.832    19  C 1.048    36  C 1.011    15  C 0.069    13  C 0.010
 
    19  C     (3.975)    20  C 1.865    18  C 1.048    56  H 0.958    22  C 0.069
 
    20  C     (3.975)    19  C 1.865    21  C 1.073    57  H 0.961    17  C 0.044
 
    21  C     (3.969)    22  C 1.839    20  C 1.073    58  H 0.960    24  C 0.042    87  H 0.010
 
    22  C     (3.988)    21  C 1.839    23  C 1.040    37  C 1.012    19  C 0.069
 
    23  C     (3.972)    24  C 1.916    22  C 1.040    59  H 0.956    30  C 0.019    26  C 0.013
 
    24  C     (3.974)    23  C 1.916    25  C 1.016    60  H 0.955    21  C 0.042
 
    25  C     (3.988)    30  C 1.900    24  C 1.016    26  C 0.981    66  H 0.012    88  H 0.012
 
    26  C     (3.987)    40  C 0.992    27  C 0.989    39  C 0.988    25  C 0.981    23  C 0.013
 
    27  C     (3.961)    28  C 1.003    26  C 0.989    61  H 0.970    62  H 0.969
 
    28  C     (3.963)    27  C 1.003    29  C 1.000    64  H 0.972    63  H 0.969
 
    29  C     (3.962)    30  C 1.007    28  C 1.000    65  H 0.964    66  H 0.957
 
    30  C     (3.991)    25  C 1.900    38  C 1.012    29  C 1.007    23  C 0.019    39  C 0.014
 
    31  C     (3.926)     9  C 1.012    67  H 0.967    69  H 0.958    68  H 0.956
 
    32  C     (3.930)     6  C 0.991    72  H 0.971    70  H 0.971    71  H 0.968
 
    33  C     (3.930)     6  C 0.989    74  H 0.971    73  H 0.969    75  H 0.968     4  C 0.013
 
    34  C     (3.927)     4  C 1.011    76  H 0.965    78  H 0.963    77  H 0.958
 
    35  C     (3.927)    13  C 1.011    79  H 0.968    80  H 0.959    81  H 0.956
 
    36  C     (3.927)    18  C 1.011    84  H 0.968    82  H 0.959    83  H 0.956
 
    37  C     (3.926)    22  C 1.012    86  H 0.968    85  H 0.958    87  H 0.956
 
    38  C     (3.926)    30  C 1.012    90  H 0.963    89  H 0.963    88  H 0.958
 
    39  C     (3.932)    26  C 0.988    93  H 0.971    92  H 0.970    91  H 0.969    30  C 0.014
 
    40  C     (3.929)    26  C 0.992    95  H 0.971    94  H 0.970    96  H 0.968
 
    41  H     (0.981)     1  C 0.970
 
    42  H     (0.980)     1  C 0.969
 
    43  H     (0.983)     2  C 0.972
 
    44  H     (0.980)     2  C 0.969
 
    45  H     (0.978)     3  C 0.957     5  C 0.012
 
    46  H     (0.979)     3  C 0.963
 
    47  H     (0.976)     7  C 0.954
 
    48  H     (0.974)     8  C 0.956
 
    49  H     (0.976)    10  C 0.960
 
    50  H     (0.978)    11  C 0.961
 
    51  H     (0.976)    12  C 0.958
 
    52  H     (0.976)    14  C 0.960
 
    53  H     (0.978)    15  C 0.963
 
    54  H     (0.978)    16  C 0.963
 
    55  H     (0.976)    17  C 0.960
 
    56  H     (0.976)    19  C 0.958
 
    57  H     (0.978)    20  C 0.961
 
    58  H     (0.976)    21  C 0.960
 
    59  H     (0.974)    23  C 0.956
 
    60  H     (0.976)    24  C 0.955
 
    61  H     (0.981)    27  C 0.970
 
    62  H     (0.980)    27  C 0.969
 
    63  H     (0.980)    28  C 0.969
 
    64  H     (0.983)    28  C 0.972
 
    65  H     (0.979)    29  C 0.964
 
    66  H     (0.978)    29  C 0.957    25  C 0.012
 
    67  H     (0.976)    31  C 0.967
 
    68  H     (0.974)    31  C 0.956    10  C 0.010
 
    69  H     (0.974)    31  C 0.958
 
    70  H     (0.979)    32  C 0.971
 
    71  H     (0.977)    32  C 0.968
 
    72  H     (0.979)    32  C 0.971
 
    73  H     (0.979)    33  C 0.969
 
    74  H     (0.979)    33  C 0.971
 
    75  H     (0.977)    33  C 0.968
 
    76  H     (0.977)    34  C 0.965
 
    77  H     (0.976)    34  C 0.958     5  C 0.012
 
    78  H     (0.974)    34  C 0.963
 
    79  H     (0.977)    35  C 0.968
 
    80  H     (0.975)    35  C 0.959
 
    81  H     (0.974)    35  C 0.956    14  C 0.010
 
    82  H     (0.975)    36  C 0.959
 
    83  H     (0.974)    36  C 0.956    17  C 0.010
 
    84  H     (0.977)    36  C 0.968
 
    85  H     (0.974)    37  C 0.958
 
    86  H     (0.977)    37  C 0.968
 
    87  H     (0.974)    37  C 0.956    21  C 0.010
 
    88  H     (0.976)    38  C 0.958    25  C 0.012
 
    89  H     (0.977)    38  C 0.963
 
    90  H     (0.974)    38  C 0.963
 
    91  H     (0.978)    39  C 0.969
 
    92  H     (0.979)    39  C 0.970
 
    93  H     (0.979)    39  C 0.971
 
    94  H     (0.978)    40  C 0.970
 
    95  H     (0.979)    40  C 0.971
 
    96  H     (0.977)    40  C 0.968
 
 *******************************************************************************
 ** Cite this program as: MOPAC2016, Version: 22.066W, James J. P. Stewart,   **
 **                           web-site: HTTP://OpenMOPAC.net.                 **
 *******************************************************************************
 **                                                                           **
 **                                MOPAC2016                                  **
 **                                                                           **
 *******************************************************************************

                              INDO CALCULATION RESULTS

 *******************************************************************************
 *  CALCULATION DONE:                                Sun May 15 01:26:31 2022  *
 *  INDO       - The INDO Hamiltonian to be used
 *  CISD       - C.I. USES 1 AND 2 ELECTRON EXCITATIONS
 *  C.I.=4     - 4 M.O.S TO BE USED IN C.I.
 *  OLDGEO     - PREVIOUS GEOMETRY TO BE USED
 *  T=         - A TIME OF 172800.0 SECONDS REQUESTED
 *  DUMP=N     - RESTART FILE WRITTEN EVERY 7200.0 SECONDS REQUESTED
 *  MECI       - M.E.C.I. WORKING TO BE PRINTED
 **********
 *  WARNING: Specified print options may not behave as expected with INDO
 **********
 *******************************************************************************
OLDGEO INDO CISD C.I.=4 MECI
 # calculate the excited states
 beta-carotene
  ATOM    CHEMICAL      BOND LENGTH      BOND ANGLE     TWIST ANGLE 
 NUMBER    SYMBOL       (ANGSTROMS)      (DEGREES)       (DEGREES) 
   (I)                     NA:I           NB:NA:I       NC:NB:NA:I       NA    NB    NC 
     1       C          0.00000000       0.0000000       0.0000000        0     0     0
     2       C          1.53014398  *    0.0000000       0.0000000        1     0     0
     3       C          1.53290041  *  109.6693057  *    0.0000000        2     1     0
     4       C          1.49820126  *  112.0162327  *   47.4772915  *     3     2     1
     5       C          1.34158632  *  123.2376855  *  -18.0280702  *     4     3     2
     6       C          1.51253223  *  123.7732635  *    1.3557177  *     5     4     3
     7       C          1.46737637  *  121.4377956  * -178.9282100  *     5     4     3
     8       C          1.33902501  *  122.7976428  *  -86.3662978  *     7     5     4
     9       C          1.46247603  *  122.9708317  * -179.2689195  *     8     7     5
    10       C          1.34756676  *  121.0666460  *   45.2388979  *     9     8     7
    11       C          1.44984941  *  124.3095515  *  179.2385014  *    10     9     8
    12       C          1.34442771  *  122.3811815  *  177.1196036  *    11    10     9
    13       C          1.46087948  *  122.9817468  * -179.8028058  *    12    11    10
    14       C          1.34848436  *  121.3252207  *  -41.8531484  *    13    12    11
    15       C          1.44902783  *  124.5236607  * -179.4716753  *    14    13    12
    16       C          1.34732465  *  122.1373804  * -179.1123867  *    15    14    13
    17       C          1.44902349  *  122.1391445  *  179.7814080  *    16    15    14
    18       C          1.34848500  *  124.5348262  * -179.1943891  *    17    16    15
    19       C          1.46089288  *  121.3250374  * -179.4418617  *    18    17    16
    20       C          1.34446549  *  122.9842834  *  -41.8101811  *    19    18    17
    21       C          1.44984771  *  122.3758359  * -179.8276108  *    20    19    18
    22       C          1.34761160  *  124.3170631  *  177.2488300  *    21    20    19
    23       C          1.46236199  *  121.0855047  *  179.2122957  *    22    21    20
    24       C          1.33946464  *  122.9977513  *   44.9045042  *    23    22    21
    25       C          1.46684106  *  122.8683731  * -179.2412367  *    24    23    22
    26       C          1.51372671  *  114.3154868  *  104.6474202  *    25    24    23
    27       C          1.54577525  *  110.9674748  * -166.8577426  *    26    25    24
    28       C          1.52973342  *  111.1715750  *  -44.9742496  *    27    26    25
    29       C          1.53258855  *  109.5746428  *   62.4947686  *    28    27    26
    30       C          1.34182101  *  121.9894159  *  -77.4926932  *    25    24    23
    31       C          1.49268022  *  115.1740428  * -135.6309412  *     9     8     7
    32       C          1.54083614  *  110.0769023  * -134.3563376  *     6     5     4
    33       C          1.53973263  *  108.6542503  *  106.1900437  *     6     5     4
    34       C          1.49451606  *  114.2051627  *  162.4743084  *     4     3     2
    35       C          1.49366647  *  115.2474961  *  139.0323283  *    13    12    11
    36       C          1.49366250  *  123.4309913  *   -0.4401409  *    18    17    16
    37       C          1.49279906  *  123.7172459  *    0.1964468  *    22    21    20
    38       C          1.49438702  *  123.0504416  *    0.3746871  *    30    25    24
    39       C          1.54048307  *  108.5601625  *   72.2243548  *    26    25    24
    40       C          1.53998654  *  110.1579096  *  -47.3408407  *    26    25    24
    41       H          1.10407963  *  110.4512613  *  175.2118256  *     1     2     3
    42       H          1.10640064  *  109.5459648  *   58.7525777  *     1     2     3
    43       H          1.10457797  *  110.4493978  * -121.8370059  *     2     1     3
    44       H          1.10632852  *  110.2168134  *  121.2951441  *     2     1     3
    45       H          1.11084924  *  109.8283874  *  -73.6834100  *     3     2     1
    46       H          1.10838572  *  109.7475641  *  170.5108610  *     3     2     1
    47       H          1.09224075  *  114.8920446  *   93.6324775  *     7     5     4
    48       H          1.09108241  *  121.4502028  *    1.3614965  *     8     7     5
    49       H          1.09247132  *  119.8927062  *   -0.2078913  *    10     9     8
    50       H          1.09198465  *  116.8440965  *   -2.4423742  *    11    10     9
    51       H          1.09062742  *  121.6421344  *   -0.5563666  *    12    11    10
    52       H          1.09287731  *  119.7601018  *   -0.1003501  *    14    13    12
    53       H          1.09038483  *  116.9009901  *    0.9350681  *    15    14    13
    54       H          1.09038401  *  120.9597621  *   -0.2806869  *    16    15    14
    55       H          1.09291726  *  115.7052130  *    1.4110426  *    17    16    15
    56       H          1.09062418  *  115.3664834  *  138.8993793  *    19    18    17
    57       H          1.09196049  *  120.7675437  *   -0.2613299  *    20    19    18
    58       H          1.09245729  *  115.7863322  *   -3.2945273  *    21    20    19
    59       H          1.09105785  *  115.5828407  * -135.4147221  *    23    22    21
    60       H          1.09214142  *  122.2359777  *    0.4071119  *    24    23    22
    61       H          1.10404996  *  109.9438397  * -167.6492185  *    27    26    25
    62       H          1.10664508  *  109.5407475  *   76.2348568  *    27    26    25
    63       H          1.10625114  *  110.2600983  *  -58.8149473  *    28    27    26
    64       H          1.10461928  *  110.4728494  * -175.7041386  *    28    27    26
    65       H          1.10824224  *  109.7266405  * -170.9843645  *    29    28    27
    66       H          1.11093161  *  109.8199305  *   73.2615975  *    29    28    27
    67       H          1.09829911  *  112.6168576  *    9.7800407  *    31     9     8
    68       H          1.10016562  *  111.1351852  * -110.4595413  *    31     9     8
    69       H          1.09993691  *  111.5445248  *  129.7607963  *    31     9     8
    70       H          1.09475812  *  111.1702392  *   54.3355761  *    32     6     5
    71       H          1.09575448  *  111.3986683  *  -65.7801445  *    32     6     5
    72       H          1.09440482  *  111.1142838  *  174.5721431  *    32     6     5
    73       H          1.09481529  *  111.1613372  *  -58.6870629  *    33     6     5
    74       H          1.09368005  *  111.3428355  * -179.1424236  *    33     6     5
    75       H          1.09632482  *  111.1062110  *   60.7996330  *    33     6     5
    76       H          1.09776136  *  111.8945189  *   40.5989324  *    34     4     3
    77       H          1.09972486  *  110.6397924  *  -79.3119394  *    34     4     3
    78       H          1.09943758  *  112.6530020  *  161.1317462  *    34     4     3
    79       H          1.09804973  *  112.6482955  *  -10.1583037  *    35    13    12
    80       H          1.09972864  *  111.4790846  * -130.0840270  *    35    13    12
[...]
  
  S  C  28   0.00319    -0.01149    -0.01199     0.00713    -0.00489    -0.00150
 PX  C  28   0.03624     0.00004    -0.00197     0.00419    -0.00346    -0.00126
 PY  C  28   0.04555     0.02248     0.02100    -0.00923     0.00585     0.00167
 PZ  C  28  -0.02740     0.03169     0.03403    -0.02156     0.01499     0.00465
  
  S  C  29  -0.02458    -0.03166    -0.03159     0.01716    -0.01166    -0.00360
 PX  C  29   0.00161    -0.05713    -0.05893     0.03419    -0.02335    -0.00713
 PY  C  29   0.06530     0.07463     0.07389    -0.03893     0.02608     0.00788
 PZ  C  29   0.00240     0.08045     0.08277    -0.04775     0.03257     0.00994
  
  S  C  30  -0.04236    -0.04146    -0.04121     0.02271    -0.01571    -0.00500
 PX  C  30   0.11952     0.01881     0.01318     0.00125    -0.00243    -0.00122
 PY  C  30   0.34712     0.28162     0.27304    -0.13509     0.08883     0.02637
 PZ  C  30  -0.02080     0.06353     0.06674    -0.04089     0.02851     0.00897
  
  S  C  31  -0.00807    -0.02879     0.02879     0.00025    -0.00728     0.00623
 PX  C  31   0.01816     0.07184    -0.06857     0.01087     0.03022    -0.02134
 PY  C  31   0.01788     0.04720    -0.04967    -0.01052     0.00042    -0.00401
 PZ  C  31   0.02663     0.07533    -0.07767    -0.01092     0.00699    -0.00955
  
  S  C  32   0.01125    -0.01116     0.01134     0.00409     0.00237    -0.00057
 PX  C  32   0.05597    -0.05304     0.05329     0.01794     0.00995    -0.00220
 PY  C  32   0.00531     0.00270    -0.00412    -0.00420    -0.00343     0.00125
 PZ  C  32   0.01150     0.00011    -0.00201    -0.00430    -0.00374     0.00142
  
  S  C  33   0.00701    -0.00698     0.00713     0.00265     0.00157    -0.00039
 PX  C  33   0.00590    -0.00718     0.00751     0.00309     0.00193    -0.00052
 PY  C  33   0.03158    -0.02272     0.02150     0.00442     0.00126     0.00029
 PZ  C  33  -0.02148     0.02555    -0.02679    -0.01134    -0.00722     0.00202
  
  S  C  34  -0.02345     0.02118    -0.02157    -0.00812    -0.00490     0.00127
 PX  C  34   0.05208    -0.04707     0.04819     0.01900     0.01192    -0.00332
 PY  C  34   0.08451    -0.06644     0.06649     0.02336     0.01374    -0.00346
 PZ  C  34   0.01892    -0.00943     0.00818     0.00018    -0.00096     0.00071
  
  S  C  35  -0.00859     0.02252    -0.00764     0.02503     0.01384     0.00668
 PX  C  35  -0.02193     0.06385    -0.02543     0.06511     0.04113     0.00935
 PY  C  35   0.01749    -0.05458     0.02322    -0.05465    -0.03713    -0.00434
 PZ  C  35  -0.01866     0.03573    -0.00555     0.04392     0.01166     0.02939
  
  S  C  36  -0.00054    -0.02282    -0.00613    -0.02527     0.01355    -0.00674
 PX  C  36  -0.00304     0.06697     0.02210     0.06800    -0.04208     0.00957
 PY  C  36   0.00316    -0.05322    -0.01855    -0.05292     0.03471    -0.00443
 PZ  C  36   0.00599     0.03555     0.00298     0.04376    -0.01079     0.02942
  
  S  C  37  -0.02697     0.03011     0.02707    -0.00003    -0.00728    -0.00618
 PX  C  37   0.03476    -0.02898    -0.02851     0.01001    -0.00397     0.00014
 PY  C  37   0.05540    -0.06618    -0.05622    -0.01206     0.02861     0.01973
 PZ  C  37  -0.09906     0.09524     0.08783    -0.01019    -0.01126    -0.01284
  
  S  C  38  -0.05308    -0.02293    -0.02073     0.00767    -0.00441    -0.00108
 PX  C  38   0.14474     0.05408     0.04817    -0.01719     0.00992     0.00252
 PY  C  38   0.13917     0.05890     0.05358    -0.02127     0.01303     0.00364
 PZ  C  38  -0.11278    -0.03689    -0.03177     0.00901    -0.00432    -0.00072
  
  S  C  39   0.01840     0.00595     0.00491    -0.00082     0.00010    -0.00013
 PX  C  39  -0.02055    -0.00983    -0.00888     0.00326    -0.00189    -0.00048
 PY  C  39   0.06919     0.02445     0.02070    -0.00466     0.00160    -0.00005
 PZ  C  39  -0.07174    -0.01174    -0.00718    -0.00408     0.00462     0.00206
  
  S  C  40   0.02230     0.01336     0.01253    -0.00541     0.00335     0.00092
 PX  C  40   0.07099     0.03099     0.02747    -0.00861     0.00426     0.00072
 PY  C  40   0.07858     0.04566     0.04242    -0.01738     0.01043     0.00272
 PZ  C  40   0.03989     0.03238     0.03141    -0.01564     0.01035     0.00312
  
  S  H  41   0.02085    -0.00006    -0.00288    -0.00615    -0.00521     0.00189
  
  S  H  42   0.00433     0.00362    -0.00484    -0.00380    -0.00288     0.00096
  
  S  H  43   0.00279     0.01853    -0.02165    -0.01252    -0.00871     0.00264
  
  S  H  44   0.00099     0.00436    -0.00502    -0.00269    -0.00180     0.00052
  
  S  H  45  -0.00860     0.02090    -0.02311    -0.01166    -0.00787     0.00233
  
  S  H  46  -0.01541     0.03118    -0.03414    -0.01673    -0.01118     0.00327
  
  S  H  47   0.01738    -0.00402     0.00070    -0.00705    -0.00689     0.00286
  
  S  H  48  -0.00523    -0.03632     0.03428    -0.00614    -0.01566     0.01075
  
  S  H  49  -0.00444     0.00782    -0.00234     0.00911     0.00601     0.00047
  
  S  H  50  -0.00852    -0.00880     0.01276     0.00423    -0.00261     0.00519
  
  S  H  51  -0.01551     0.02769    -0.00476     0.03702     0.01681     0.01366
  
  S  H  52   0.01581    -0.00244    -0.00742    -0.00235     0.00545    -0.00143
  
  S  H  53   0.01531     0.00878    -0.01288     0.01308     0.01234     0.01182
  
  S  H  54   0.01797    -0.00941    -0.01224    -0.01333     0.01214    -0.01187
  
  S  H  55   0.01476     0.00204    -0.00757     0.00222     0.00547     0.00141
  
  S  H  56  -0.00843    -0.02780    -0.00285    -0.03726     0.01635    -0.01373
  
  S  H  57  -0.01652     0.00943     0.01228    -0.00412    -0.00268    -0.00517
  
  S  H  58  -0.00223    -0.00793    -0.00185    -0.00917     0.00590    -0.00049
  
  S  H  59  -0.02437     0.03744     0.03166     0.00669    -0.01574    -0.01071
  
  S  H  60   0.04495     0.00673     0.00274     0.00638    -0.00639    -0.00272
  
  S  H  61   0.04826    -0.00025    -0.00320     0.00641    -0.00527    -0.00189
  
  S  H  62   0.00908    -0.00335    -0.00399     0.00313    -0.00229    -0.00075
  
  S  H  63   0.00336    -0.00493    -0.00517     0.00301    -0.00203    -0.00060
  
  S  H  64   0.00911    -0.02011    -0.02117     0.01281    -0.00879    -0.00268
  
  S  H  65  -0.03283    -0.03343    -0.03275     0.01653    -0.01085    -0.00318
  
  S  H  66  -0.01803    -0.02175    -0.02149     0.01114    -0.00738    -0.00219
  
  S  H  67  -0.00338    -0.02626     0.02257    -0.01224    -0.01947     0.01166
  
  S  H  68  -0.00828    -0.01875     0.02035     0.00623     0.00194     0.00062
  
  S  H  69  -0.00993    -0.01898     0.02164     0.00965     0.00531    -0.00086
  
  S  H  70   0.00386    -0.00191     0.00158    -0.00017    -0.00037     0.00020
  
  S  H  71   0.00651    -0.01425     0.01550     0.00730     0.00478    -0.00136
  
  S  H  72   0.02261    -0.01287     0.01153     0.00129    -0.00022     0.00044
  
  S  H  73  -0.00060     0.00223    -0.00253    -0.00142    -0.00101     0.00032
  
  S  H  74   0.01832    -0.01068     0.00959     0.00103    -0.00027     0.00043
  
  S  H  75   0.00365    -0.00982     0.01085     0.00531     0.00348    -0.00096
  
  S  H  76  -0.02355     0.02493    -0.02615    -0.01143    -0.00748     0.00219
  
  S  H  77  -0.01855     0.01546    -0.01556    -0.00560    -0.00333     0.00086
  
  S  H  78  -0.01537     0.00376    -0.00253     0.00100     0.00107    -0.00041
  
  S  H  79  -0.01233     0.01782     0.00018     0.02363     0.00262     0.01969
  
  S  H  80  -0.00217     0.01749    -0.01114     0.01455     0.01555    -0.00590
  
  S  H  81  -0.00360     0.01622    -0.00872     0.01463     0.01277    -0.00247
  
  S  H  82   0.00529    -0.01805    -0.01006    -0.01488     0.01553     0.00592
  
  S  H  83   0.00299    -0.01655    -0.00757    -0.01486     0.01253     0.00229
  
  S  H  84  -0.00626    -0.01772     0.00140    -0.02362     0.00226    -0.01968
  
  S  H  85  -0.02762     0.01996     0.02056    -0.00961     0.00521     0.00085
  
  S  H  86  -0.01708     0.02731     0.02094     0.01261    -0.01939    -0.01157
  
  S  H  87  -0.02418     0.01966     0.01925    -0.00616     0.00188    -0.00061
  
  S  H  88  -0.04228    -0.01970    -0.01824     0.00783    -0.00496    -0.00143
  
  S  H  89  -0.05205    -0.02405    -0.02209     0.00903    -0.00555    -0.00154
  
  S  H  90  -0.03708    -0.00364    -0.00203    -0.00078     0.00062     0.00011
  
  S  H  91   0.00192    -0.00431    -0.00469     0.00324    -0.00235    -0.00078
  
  S  H  92   0.00973     0.00916     0.00878    -0.00396     0.00245     0.00066
  
  S  H  93   0.04510     0.00856     0.00586     0.00140    -0.00196    -0.00094
  
  S  H  94   0.00411     0.00463     0.00455    -0.00224     0.00142     0.00039
  
  S  H  95   0.04767     0.01576     0.01317    -0.00261     0.00069    -0.00017
  
  S  H  96   0.01259     0.01566     0.01542    -0.00781     0.00510     0.00148


 Reference determinate nber   1 is ALPHA 1 - 108
 SINGLE excitations FROM orbs 107 to 108 INTO orbs 109 to 110
 DOUBLE excitations FROM orbs 107 to 108 INTO orbs 109 to 110
 

 CI excitations=   15:        = 15
 The lowest   15 spin-adapted configurations of multiplicity=  1
     sym   eV   cm**-1 -dets- dipole oscilator X FRAG ....Excitations named from first reference determinate
                       tot  #  Debye  strength
 
   1     -0.000      0.  1  1  0.7931 0.000000 0  0 (        )->(           )
   2      3.623  29222.  2  1  0.6701 1.566828 1  1 ( 108    )->( 109       )
   3      4.560  36775.  2  1  1.3157 0.099238 1  1 ( 108    )->( 110       )
   4      4.741  38238.  2  1  3.0760 0.107094 1  1 ( 107    )->( 109       )
   5      5.444  43911.  2  1  1.3363 0.886534 1  1 ( 107    )->( 110       )
   6      6.267  50548.  1  1  0.5535 0.000000 2  0 ( 108 108)->( 109 109   )
   7      7.566  61022.  6  1  1.2127 0.000000 2  1 ( 107 108)->( 109 110   )
   8      8.427  67965.  2  1  1.4473 0.000000 2  1 ( 108 108)->( 109 110   )
   9      8.437  68049.  2  1  2.9394 0.000000 2  1 ( 107 108)->( 109 109   )
  10      9.437  76118.  1  1  3.4051 0.000000 2  0 ( 108 108)->( 110 110   )
  11      9.821  79208.  1  1  5.4256 0.000000 2  0 ( 107 107)->( 109 109   )
  12      9.868  79595.  6  2  1.2127 0.000000 2  1 ( 107 108)->( 109 110   )
  13      9.909  79921.  1  1  2.2125 0.000000 2  0 ( 107 107)->( 110 110   )
  14     10.066  81190.  2  1  1.4189 0.000000 2  1 ( 107 108)->( 110 110   )
  15     10.439  84196.  2  1  3.6483 0.000000 2  1 ( 107 107)->( 109 110   )
 
 COSMO corrections to state energies
 State    Diag E (eV)   Uncorr E (eV)   Final E (eV)
     1       -0.15099       -0.15099       -0.15099
     2        3.41891        3.41891        3.41891
     3        4.17795        4.17795        4.17795
     4        4.37677        4.37677        4.37677
     5        5.54120        5.54120        5.54120
     6        5.71902        5.71902        5.71902
     7        6.55273        6.55273        6.55273
     8        7.22911        7.22911        7.22911
     9        8.01960        8.01960        8.01960
    10        8.13696        8.13696        8.13696
    11        8.96900        8.96900        8.96900
    12        9.20492        9.20492        9.20492
    13        9.66525        9.66525        9.66525
    14       13.78292       13.78292       13.78292
    15       13.96117       13.96117       13.96117

 Depression of ground-state after CI=      -1218. cm**-1 Energy= -7218.1264576 eV
 Dipole moment=  0.552643  0.539142 -0.003131 tot=  0.772074 Debyes


  CI trans.  energy frequency wavelength oscillator--------- polarization---------  dipole  ------ components-----
 st.  symm.    eV      cm - 1       nm      strength       x          y         z       moment     x       y       z 

   2      3.5699053    28793.    347.30  1.635538  -0.388931   0.465214   0.795178  0.834706   0.557   0.620   0.037
   3      4.3289444    34915.    286.41  0.057455   0.654729   0.746647  -0.117682  0.565231   0.448   0.338  -0.068
   4      4.5277644    36519.    273.83  0.100387  -0.630323  -0.767071   0.119561  1.166236   0.487   0.999   0.355
   5      5.6921899    45911.    217.81  0.240660   0.747656  -0.646148   0.153306  0.914052   0.509   0.759  -0.004
   6      5.8700171    47345.    211.22  0.000340  -0.943436   0.318968   0.090491  1.316062   0.060   0.985   0.871
   7      6.7037212    54069.    184.95  0.001467  -0.562613   0.579319   0.589794  0.678572   0.142   0.550   0.372
   8      7.3801027    59525.    168.00  0.000255  -0.757307  -0.644832  -0.103334  1.092372  -0.005   0.818   0.724
   9      8.1705918    65900.    151.74  0.000405   0.256612  -0.749384  -0.610388  0.642351   0.222   0.537   0.274
  10      8.2879595    66847.    149.60  0.019403   0.706358  -0.669188  -0.230749  0.849868   0.686   0.331  -0.377
  11      9.1199962    73558.    135.95  0.001450  -0.725545   0.657119   0.204399  1.169520   0.885   0.186  -0.741
  12      9.3559107    75461.    132.52  0.000110   0.188110   0.702216   0.686664  3.447556  -0.660   2.373   2.413
  13      9.8162421    79174.    126.30  0.000308  -0.593695  -0.799363   0.092436  3.507065  -0.759   2.298   2.538
  14     13.9339104   112385.     88.98  0.027703  -0.545777   0.577717   0.606936 56.621172  23.783 -26.644 -43.937
  15     14.1121674   113823.     87.86  0.006707  -0.546983   0.565994   0.616814 58.727602 -23.381  29.034  45.379
 
 Polarizability (au  ) xx=   60.09 xy=  -51.43 yy=   79.26 xz=  -87.89 yz=  102.50 zz=  181.11
 Polarizability (A**3) xx=    8.90 xy=   -7.62 yy=   11.74 xz=  -13.02 yz=   15.19 zz=   26.84
 
 
 Major CI contributions to CI states
 
State    1  0.0000     CI coeff  CI percent
    Config       1   0.98792055  0.97598702
    Config       6  -0.09527775  0.00907785
    Config       7  -0.05159771  0.00266232
    Config      12   0.08013488  0.00642160
    Config      13  -0.05988887  0.00358668
 Total coeff printed             0.99773547
  
State    2  3.5699     CI coeff  CI percent
    Config       2  -0.95855205  0.91882203
    Config       5   0.27773302  0.07713563
    Config       8  -0.05877795  0.00345485
 Total coeff printed             0.99941251
  
State    3  4.3289     CI coeff  CI percent
    Config       1   0.07188111  0.00516689
    Config       3  -0.89026510  0.79257196
    Config       6   0.34922254  0.12195639
    Config       7   0.25760198  0.06635878
    Config      11  -0.06203650  0.00384853
    Config      12  -0.07839763  0.00614619
    Config      13   0.05940038  0.00352841
 Total coeff printed             0.99957714
  
State    4  4.5278     CI coeff  CI percent
    Config       1   0.04986476  0.00248649
    Config       3   0.20333943  0.04134693
    Config       4  -0.90573092  0.82034851
    Config       6   0.27848337  0.07755299
    Config       7   0.21748728  0.04730072
    Config      10  -0.08525741  0.00726883
    Config      13   0.04412108  0.00194667
 Total coeff printed             0.99825113
  
State    5  5.6922     CI coeff  CI percent
    Config       2  -0.26547019  0.07047442
    Config       5  -0.94821049  0.89910313
    Config       8  -0.10413398  0.01084388
    Config       9   0.12041808  0.01450051
    Config      15   0.04838359  0.00234097
 Total coeff printed             0.99726292
  
State    6  5.8700     CI coeff  CI percent
    Config       1  -0.08583510  0.00736767
    Config       3  -0.35265704  0.12436699
    Config       4  -0.36416525  0.13261633
    Config       6  -0.76181891  0.58036805
    Config      10   0.18228040  0.03322615
    Config      11   0.14329022  0.02053209
    Config      12   0.26547406  0.07047647
    Config      13  -0.16992891  0.02887583
 Total coeff printed             0.99782957
  
State    7  6.7037     CI coeff  CI percent
    Config       8   0.67160335  0.45105106
    Config       9   0.65391654  0.42760684
    Config      14   0.25110442  0.06305343
    Config      15   0.23819611  0.05673739
 Total coeff printed             0.99844872
  
State    8  7.3801     CI coeff  CI percent
    Config       1   0.05871665  0.00344765
    Config       3  -0.06996122  0.00489457
    Config       4  -0.11613644  0.01348767
    Config       6   0.11188632  0.01251855
    Config       7  -0.47057730  0.22144300
    Config      10   0.48131384  0.23166301
    Config      11   0.42177138  0.17789109
    Config      12  -0.57380354  0.32925051
    Config      13  -0.06653326  0.00442668
 Total coeff printed             0.99902272
  
State    9  8.1706     CI coeff  CI percent
    Config       1   0.06988929  0.00488451
    Config       3   0.14090989  0.01985560
    Config       4   0.12821230  0.01643839
    Config       6  -0.29365276  0.08623194
    Config       7   0.71698031  0.51406076
    Config      10   0.23966818  0.05744083
    Config      11   0.16060086  0.02579264
    Config      12  -0.40207527  0.16166452
    Config      13   0.33640194  0.11316627
 Total coeff printed             0.99953546
  
State   10  8.2880     CI coeff  CI percent
    Config       2  -0.09179893  0.00842704
    Config       5  -0.14115173  0.01992381
    Config       8   0.49139896  0.24147294
    Config       9  -0.60471627  0.36568176
    Config      14   0.53061077  0.28154779
    Config      15  -0.28530561  0.08139929
 Total coeff printed             0.99845263
  
State   11  9.1200     CI coeff  CI percent
    Config       8  -0.35525152  0.12620364
    Config       9  -0.12116737  0.01468153
    Config      14   0.58642362  0.34389266
    Config      15   0.71566944  0.51218275
 Total coeff printed             0.99696058
  
State   12  9.3559     CI coeff  CI percent
    Config       3   0.10609580  0.01125632
    Config       4   0.11471394  0.01315929
    Config       6   0.22009584  0.04844218
    Config       7   0.38154024  0.14557296
    Config      10   0.22320517  0.04982055
    Config      11   0.26887054  0.07229137
    Config      12   0.16910401  0.02859617
    Config      13  -0.79367068  0.62991314
 Total coeff printed             0.99905197
  
State   13  9.8162     CI coeff  CI percent
    Config       3   0.05875177  0.00345177
    Config       6   0.04875906  0.00237745
    Config      10   0.68545086  0.46984288
    Config      11  -0.71874792  0.51659857
    Config      12   0.06482954  0.00420287
 Total coeff printed             0.99647354
  
State   14 13.9339     CI coeff  CI percent
    Config       6   0.11028060  0.01216181
    Config       8  -0.37107037  0.13769322
    Config       9   0.37727110  0.14233348
    Config      10   0.18031292  0.03251275
    Config      11   0.17497145  0.03061501
    Config      12   0.27247296  0.07424152
    Config      13   0.19661453  0.03865727
    Config      14   0.50252869  0.25253508
    Config      15  -0.52589350  0.27656397
 Total coeff printed             0.99731412
  
State   15 14.1122     CI coeff  CI percent
    Config       6  -0.22025575  0.04851260
    Config       8  -0.16869589  0.02845830
    Config       9   0.18531487  0.03434160
    Config      10  -0.34115869  0.11638925
    Config      11  -0.38871357  0.15109824
    Config      12  -0.56313297  0.31711874
    Config      13  -0.41812667  0.17482991
    Config      14   0.23502076  0.05523476
    Config      15  -0.26542559  0.07045074
 Total coeff printed             0.99643414
  

 **********************
 *                    *
 * JOB ENDED NORMALLY *
 *                    *
 **********************



 TOTAL JOB TIME:            83.24 SECONDS

 == MOPAC DONE ==
