 *******************************************************************************
 ** Site#: 28262 E-mail support:    MrMOPAC@ATT.net    Version 17.276W 64BITS **
 *******************************************************************************
 ** Cite this program as: MOPAC2016, Version: 17.276W, James J. P. Stewart,   **
 ** Stewart Computational Chemistry, web-site: HTTP://OpenMOPAC.net.          **
 *******************************************************************************
 **                                                                           **
 **                                MOPAC2016                                  **
 **                                                                           **
 *******************************************************************************

                              PM7 CALCULATION RESULTS


 *******************************************************************************
 *  CALCULATION DONE:                                Tue Oct 03 21:40:02 2017  *
 *  SETPI      - SOME OR ALL PI BONDS EXPLICITLY SET BY USER
 *  MOZYME     - USE LOCALIZED M.O.s IN SOLVING THE SCF EQUATIONS
 *  NOOPT      - DO NOT OPTIMIZE ANY COORDINATES
 *  OPT-H      - OPTIMIZE COORDINATES OF ATOMS OF TYPE H
 *
 *
 *
 *                 CHARGE ON SYSTEM =    -1
 *
 *
 *
 *  EPS= 78.40 - USE ANDREAS KLAMT'S COSMO IMPLICIT SOLVATION MODEL
 *  T=         - A TIME OF      2.0 WEEKS   REQUESTED
 *  DUMP=N     - RESTART FILE WRITTEN EVERY  7200.000 SECONDS
 *  GNORM=     - EXIT WHEN GRADIENT NORM DROPS BELOW   5.00    
 *  OUTPUT     - MINIMIZE OUTPUT
 *  HTML       - WRITE HTML SCRIPT TO READ PDB FILE USING JSMOL
 *******************************************************************************
HTML OUTPUT noopt opt-H setpi t=2W GNORM=5 charge=-1 MOZYME eps=78.4
 Optimizing the positions of the hydrogen atoms

 

               Keyword SETPI used, pi-bonds specified are:

               Bond No.                   Atom               to              Atom
                  1            "HETATM 2500  C6  8OG A1157"   -   "HETATM 2502  N1  8OG A1157"

 General Reference for PM7:
 "Optimization of Parameters for Semiempirical Methods VI: More Modifications to the 
 NDDO Approximations and Re-optimization of Parameters", J. J. P. Stewart, J. Mol. Mod., 1:32, 19 (2013)
 http://www.springerlink.com/openurl.asp?genre=article&id=doi:10.1007/s00894-012-1667-x

           Empirical Formula: C817 H1514 N214 O382 S8 P  =  2936 atoms


   Ion Atom No.           Label               Charge (Distances are between charged sites predicted by Lewis structure theory)
 
    1   N  346   (ATOM    346  NZ  LYS A  23)   +1  (4.7 Angstroms from anion  O 2508, Label: HETATM 2509  OP1 8OG A1157)
    2   N  368   (ATOM    368  NZ  LYS A  24)   +1  (2.8 Angstroms from anion  O 1470, Label: ATOM   1470  OE2 GLU A  97)
    3   C  464   (ATOM    464  CZ  ARG A  31)   +1  (6.0 Angstroms from anion  O 2263, Label: ATOM   2263  OD2 ASP A 143)
    4   C  737   (ATOM    737  CZ  ARG A  50)   +1  (3.3 Angstroms from anion  O  692, Label: ATOM    692  OE2 GLU A  46)
    5   C  761   (ATOM    761  CZ  ARG A  51)   +1  (3.5 Angstroms from anion  O  644, Label: ATOM    644  OE2 GLU A  43)
    6   C 1281   (ATOM   1281  CE1 HIS A  84)   +1  (3.3 Angstroms from anion  O 1251, Label: ATOM   1251  OD2 ASP A  82)
    7   C 2116   (ATOM   2116  CE1 HIS A 134)   +1  (5.4 Angstroms from anion  O 2475, Label: ATOM   2475  OXT VAL A 156)
    8   N 2181   (ATOM   2181  NZ  LYS A 138)   +1  (3.8 Angstroms from anion  O 2327, Label: ATOM   2327  OD2 ASP A 147)
 
    1   O  644   (ATOM    644  OE2 GLU A  43)   -1  (3.5 Angstroms from cation  C  761, Label: ATOM    761  CZ  ARG A  51)
    2   O  692   (ATOM    692  OE2 GLU A  46)   -1  (3.3 Angstroms from cation  C  737, Label: ATOM    737  CZ  ARG A  50)
    3   O 1251   (ATOM   1251  OD2 ASP A  82)   -1  (3.3 Angstroms from cation  C 1281, Label: ATOM   1281  CE1 HIS A  84)
    4   O 1470   (ATOM   1470  OE2 GLU A  97)   -1  (2.8 Angstroms from cation  N  368, Label: ATOM    368  NZ  LYS A  24)
    5   O 2263   (ATOM   2263  OD2 ASP A 143)   -1  (6.0 Angstroms from cation  C  464, Label: ATOM    464  CZ  ARG A  31)
    6   O 2327   (ATOM   2327  OD2 ASP A 147)   -1  (3.8 Angstroms from cation  N 2181, Label: ATOM   2181  NZ  LYS A 138)
    7   O 2475   (ATOM   2475  OXT VAL A 156)   -1  (5.4 Angstroms from cation  C 2116, Label: ATOM   2116  CE1 HIS A 134)
    8   O 2500   (HETATM 2501  O6  8OG A1157)   -1  (7.4 Angstroms from cation  C  464, Label: ATOM    464  CZ  ARG A  31)
    9   O 2508   (HETATM 2509  OP1 8OG A1157)   -1  (4.7 Angstroms from cation  N  346, Label: ATOM    346  NZ  LYS A  23)

          COMPUTED CHARGE ON SYSTEM: -1, THIS AGREES WITH THE CHARGE DEFINED BY KEYWORD "CHARGE"

          Geometry optimization using L-BFGS
 CYCLE:     1 TIME: 238.617 TIME LEFT:  2.00W  GRAD.:   770.358 HEAT: -20775.78
 CYCLE:     2 TIME:  94.758 TIME LEFT:  2.00W  GRAD.:   767.596 HEAT: -20781.72
 CYCLE:     3 TIME: 113.305 TIME LEFT:  2.00W  GRAD.:   439.732 HEAT: -21421.01
 CYCLE:     4 TIME:  99.078 TIME LEFT:  2.00W  GRAD.:   207.907 HEAT: -21740.04
 CYCLE:     5 TIME: 112.227 TIME LEFT:  2.00W  GRAD.:   171.821 HEAT: -21858.15
 CYCLE:     6 TIME: 113.469 TIME LEFT:  2.00W  GRAD.:   179.654 HEAT: -21948.10
 CYCLE:     7 TIME: 113.852 TIME LEFT:  2.00W  GRAD.:   153.317 HEAT: -22028.09
 CYCLE:     8 TIME: 111.477 TIME LEFT:  2.00W  GRAD.:   176.349 HEAT: -22108.68
 CYCLE:     9 TIME: 112.398 TIME LEFT:  2.00W  GRAD.:   146.014 HEAT: -22168.02
 CYCLE:    10 TIME: 112.570 TIME LEFT:  2.00W  GRAD.:   126.293 HEAT: -22219.32
 CYCLE:    11 TIME: 113.023 TIME LEFT:  2.00W  GRAD.:   139.547 HEAT: -22279.59
 CYCLE:    12 TIME: 113.117 TIME LEFT:  2.00W  GRAD.:   166.926 HEAT: -22321.45
 CYCLE:    13 TIME: 111.898 TIME LEFT:  2.00W  GRAD.:   170.078 HEAT: -22377.32
 CYCLE:    14 TIME: 112.070 TIME LEFT:  2.00W  GRAD.:   173.607 HEAT: -22425.44
 CYCLE:    15 TIME: 100.422 TIME LEFT:  2.00W  GRAD.:   113.244 HEAT: -22461.85
 CYCLE:    16 TIME: 114.500 TIME LEFT:  2.00W  GRAD.:   116.022 HEAT: -22516.72
 CYCLE:    17 TIME: 136.703 TIME LEFT:  2.00W  GRAD.:   169.677 HEAT: -22564.80
 CYCLE:    18 TIME: 115.305 TIME LEFT:  2.00W  GRAD.:   144.787 HEAT: -22613.40
 CYCLE:    19 TIME: 103.312 TIME LEFT:  2.00W  GRAD.:    98.605 HEAT: -22656.41
 CYCLE:    20 TIME: 148.867 TIME LEFT:  2.00W  GRAD.:   231.273 HEAT: -22649.81
 CYCLE:    21 TIME: 113.016 TIME LEFT:  2.00W  GRAD.:   131.747 HEAT: -22691.02
 CYCLE:    22 TIME: 112.523 TIME LEFT:  2.00W  GRAD.:    67.899 HEAT: -22720.47
 CYCLE:    23 TIME: 113.273 TIME LEFT:  2.00W  GRAD.:    84.418 HEAT: -22740.41
 CYCLE:    24 TIME: 110.914 TIME LEFT:  2.00W  GRAD.:   102.129 HEAT: -22760.31
 CYCLE:    25 TIME: 133.625 TIME LEFT:  2.00W  GRAD.:   133.404 HEAT: -22776.13
 CYCLE:    26 TIME: 103.023 TIME LEFT:  1.99W  GRAD.:   115.504 HEAT: -22794.53
 CYCLE:    27 TIME: 110.719 TIME LEFT:  1.99W  GRAD.:    81.517 HEAT: -22815.71
 CYCLE:    28 TIME: 113.328 TIME LEFT:  1.99W  GRAD.:    70.306 HEAT: -22833.26
 CYCLE:    29 TIME: 110.953 TIME LEFT:  1.99W  GRAD.:    90.439 HEAT: -22846.39
 CYCLE:    30 TIME: 132.578 TIME LEFT:  1.99W  GRAD.:   121.803 HEAT: -22861.37
 CYCLE:    31 TIME: 134.742 TIME LEFT:  1.99W  GRAD.:   103.297 HEAT: -22876.92
 CYCLE:    32 TIME: 133.008 TIME LEFT:  1.99W  GRAD.:    92.931 HEAT: -22884.24
 CYCLE:    33 TIME:  99.805 TIME LEFT:  1.99W  GRAD.:    43.375 HEAT: -22896.71
 CYCLE:    34 TIME: 111.211 TIME LEFT:  1.99W  GRAD.:    45.302 HEAT: -22902.29
 CYCLE:    35 TIME: 110.219 TIME LEFT:  1.99W  GRAD.:    71.952 HEAT: -22911.46
 CYCLE:    36 TIME: 112.008 TIME LEFT:  1.99W  GRAD.:    78.018 HEAT: -22918.59
 CYCLE:    37 TIME: 110.227 TIME LEFT:  1.99W  GRAD.:    46.665 HEAT: -22926.59
 CYCLE:    38 TIME: 110.750 TIME LEFT:  1.99W  GRAD.:    50.679 HEAT: -22935.66
 CYCLE:    39 TIME: 110.055 TIME LEFT:  1.99W  GRAD.:    47.320 HEAT: -22940.29
 CYCLE:    40 TIME: 142.773 TIME LEFT:  1.99W  GRAD.:    92.217 HEAT: -22942.12
 CYCLE:    41 TIME: 131.773 TIME LEFT:  1.99W  GRAD.:   159.411 HEAT: -22935.09
 CYCLE:    42 TIME: 102.586 TIME LEFT:  1.99W  GRAD.:    33.188 HEAT: -22955.04
 CYCLE:    43 TIME: 111.461 TIME LEFT:  1.99W  GRAD.:    33.044 HEAT: -22956.60
 CYCLE:    44 TIME: 110.477 TIME LEFT:  1.99W  GRAD.:    27.645 HEAT: -22959.99
 CYCLE:    45 TIME: 131.617 TIME LEFT:  1.99W  GRAD.:    45.434 HEAT: -22963.75
 CYCLE:    46 TIME: 116.250 TIME LEFT:  1.99W  GRAD.:    47.589 HEAT: -22966.54
 CYCLE:    47 TIME: 105.086 TIME LEFT:  1.99W  GRAD.:    26.120 HEAT: -22969.17
 CYCLE:    48 TIME: 112.445 TIME LEFT:  1.99W  GRAD.:    24.825 HEAT: -22971.50
 CYCLE:    49 TIME: 112.023 TIME LEFT:  1.99W  GRAD.:    29.336 HEAT: -22973.78
 CYCLE:    50 TIME: 143.102 TIME LEFT:  1.99W  GRAD.:    61.046 HEAT: -22977.11
 CYCLE:    51 TIME: 103.531 TIME LEFT:  1.99W  GRAD.:    35.929 HEAT: -22982.07
 CYCLE:    52 TIME: 109.797 TIME LEFT:  1.99W  GRAD.:    34.547 HEAT: -22987.92
 CYCLE:    53 TIME: 111.586 TIME LEFT:  1.99W  GRAD.:    58.490 HEAT: -22993.19
 CYCLE:    54 TIME: 120.570 TIME LEFT:  1.99W  GRAD.:    52.431 HEAT: -22997.31
 CYCLE:    55 TIME: 121.898 TIME LEFT:  1.99W  GRAD.:    62.087 HEAT: -22998.20
 CYCLE:    56 TIME: 112.273 TIME LEFT:  1.99W  GRAD.:    24.586 HEAT: -23002.37
 CYCLE:    57 TIME: 112.758 TIME LEFT:  1.99W  GRAD.:    28.636 HEAT: -23004.57
 CYCLE:    58 TIME: 110.125 TIME LEFT:  1.99W  GRAD.:    36.405 HEAT: -23006.32
 CYCLE:    59 TIME: 112.820 TIME LEFT:  1.99W  GRAD.:    26.710 HEAT: -23007.80
 CYCLE:    60 TIME: 108.242 TIME LEFT:  1.99W  GRAD.:    25.043 HEAT: -23009.54
 CYCLE:    61 TIME: 104.164 TIME LEFT:  1.99W  GRAD.:    23.368 HEAT: -23010.12
 RESTART FILE WRITTEN,      TIME LEFT:  1.99W  GRAD.:    57.841 HEAT: -23011.76
 CYCLE:    63 TIME: 101.703 TIME LEFT:  1.99W  GRAD.:    26.449 HEAT: -23011.92
 CYCLE:    64 TIME: 103.250 TIME LEFT:  1.99W  GRAD.:    18.645 HEAT: -23012.42
 CYCLE:    65 TIME: 100.656 TIME LEFT:  1.99W  GRAD.:    18.558 HEAT: -23012.76
 CYCLE:    66 TIME: 107.547 TIME LEFT:  1.99W  GRAD.:    19.380 HEAT: -23014.01
 CYCLE:    67 TIME: 120.523 TIME LEFT:  1.99W  GRAD.:    22.309 HEAT: -23014.27
 CYCLE:    68 TIME: 109.586 TIME LEFT:  1.99W  GRAD.:    25.646 HEAT: -23014.02
 CYCLE:    69 TIME: 113.070 TIME LEFT:  1.99W  GRAD.:    19.370 HEAT: -23015.17
 CYCLE:    70 TIME: 105.414 TIME LEFT:  1.99W  GRAD.:    12.324 HEAT: -23015.41
 CYCLE:    71 TIME: 105.156 TIME LEFT:  1.99W  GRAD.:    15.408 HEAT: -23015.86
 CYCLE:    72 TIME: 101.000 TIME LEFT:  1.99W  GRAD.:    10.477 HEAT: -23015.97
 CYCLE:    73 TIME: 112.062 TIME LEFT:  1.99W  GRAD.:    11.618 HEAT: -23016.74
 CYCLE:    74 TIME: 121.961 TIME LEFT:  1.99W  GRAD.:    40.573 HEAT: -23016.74
 CYCLE:    75 TIME: 100.359 TIME LEFT:  1.99W  GRAD.:    19.063 HEAT: -23017.42
 CYCLE:    76 TIME: 103.945 TIME LEFT:  1.99W  GRAD.:    17.606 HEAT: -23018.03
 CYCLE:    77 TIME: 124.609 TIME LEFT:  1.99W  GRAD.:    26.364 HEAT: -23018.08
 CYCLE:    78 TIME: 105.578 TIME LEFT:  1.99W  GRAD.:    16.983 HEAT: -23018.63
 CYCLE:    79 TIME: 111.484 TIME LEFT:  1.98W  GRAD.:    18.598 HEAT: -23020.21
 CYCLE:    80 TIME: 104.375 TIME LEFT:  1.98W  GRAD.:    15.382 HEAT: -23019.99
 CYCLE:    81 TIME: 120.547 TIME LEFT:  1.98W  GRAD.:    23.172 HEAT: -23020.89
 CYCLE:    82 TIME: 116.672 TIME LEFT:  1.98W  GRAD.:    16.086 HEAT: -23021.98
 CYCLE:    83 TIME: 114.109 TIME LEFT:  1.98W  GRAD.:    15.757 HEAT: -23022.83
 CYCLE:    84 TIME: 125.430 TIME LEFT:  1.98W  GRAD.:    19.151 HEAT: -23023.56
 CYCLE:    85 TIME: 113.359 TIME LEFT:  1.98W  GRAD.:    30.378 HEAT: -23025.60
 CYCLE:    86 TIME: 126.336 TIME LEFT:  1.98W  GRAD.:    19.044 HEAT: -23025.75
 CYCLE:    87 TIME: 123.203 TIME LEFT:  1.98W  GRAD.:    21.734 HEAT: -23025.46
 CYCLE:    88 TIME: 115.539 TIME LEFT:  1.98W  GRAD.:    13.322 HEAT: -23027.03
 CYCLE:    89 TIME: 122.227 TIME LEFT:  1.98W  GRAD.:    12.804 HEAT: -23026.60
 CYCLE:    90 TIME: 111.461 TIME LEFT:  1.98W  GRAD.:    15.523 HEAT: -23026.83
 CYCLE:    91 TIME: 134.453 TIME LEFT:  1.98W  GRAD.:    33.272 HEAT: -23028.94
 CYCLE:    92 TIME: 114.414 TIME LEFT:  1.98W  GRAD.:    35.276 HEAT: -23027.30
 CYCLE:    93 TIME: 119.148 TIME LEFT:  1.98W  GRAD.:    27.430 HEAT: -23029.04
 CYCLE:    94 TIME: 130.836 TIME LEFT:  1.98W  GRAD.:    40.827 HEAT: -23028.33
 CYCLE:    95 TIME: 101.156 TIME LEFT:  1.98W  GRAD.:    16.541 HEAT: -23029.57
 CYCLE:    96 TIME: 113.656 TIME LEFT:  1.98W  GRAD.:    18.961 HEAT: -23029.60
 CYCLE:    97 TIME: 111.531 TIME LEFT:  1.98W  GRAD.:    18.524 HEAT: -23030.18
 CYCLE:    98 TIME: 122.148 TIME LEFT:  1.98W  GRAD.:    26.635 HEAT: -23030.86
 CYCLE:    99 TIME: 132.047 TIME LEFT:  1.98W  GRAD.:    33.207 HEAT: -23030.48
 CYCLE:   100 TIME: 101.953 TIME LEFT:  1.98W  GRAD.:    27.066 HEAT: -23031.39
 CYCLE:   101 TIME: 109.352 TIME LEFT:  1.98W  GRAD.:    21.342 HEAT: -23033.10
 CYCLE:   102 TIME: 112.945 TIME LEFT:  1.98W  GRAD.:    19.193 HEAT: -23034.07
 CYCLE:   103 TIME: 110.539 TIME LEFT:  1.98W  GRAD.:    19.209 HEAT: -23035.68
 CYCLE:   104 TIME: 113.273 TIME LEFT:  1.98W  GRAD.:    19.365 HEAT: -23036.34
 CYCLE:   105 TIME: 121.195 TIME LEFT:  1.98W  GRAD.:    21.689 HEAT: -23035.83
 CYCLE:   106 TIME: 104.398 TIME LEFT:  1.98W  GRAD.:    11.805 HEAT: -23037.09
 CYCLE:   107 TIME:  98.062 TIME LEFT:  1.98W  GRAD.:    11.073 HEAT: -23037.32
 CYCLE:   108 TIME:  98.000 TIME LEFT:  1.98W  GRAD.:    12.006 HEAT: -23037.49
 CYCLE:   109 TIME: 101.695 TIME LEFT:  1.98W  GRAD.:    11.878 HEAT: -23037.45
 CYCLE:   110 TIME: 117.719 TIME LEFT:  1.98W  GRAD.:    19.821 HEAT: -23037.25
 CYCLE:   111 TIME: 100.695 TIME LEFT:  1.98W  GRAD.:    10.955 HEAT: -23037.88
 CYCLE:   112 TIME:  99.312 TIME LEFT:  1.98W  GRAD.:    11.357 HEAT: -23038.22
 CYCLE:   113 TIME: 103.633 TIME LEFT:  1.98W  GRAD.:    11.374 HEAT: -23038.07
 CYCLE:   114 TIME:  98.930 TIME LEFT:  1.98W  GRAD.:    13.752 HEAT: -23038.48
 CYCLE:   115 TIME: 111.172 TIME LEFT:  1.98W  GRAD.:    13.230 HEAT: -23038.47
 CYCLE:   116 TIME: 112.953 TIME LEFT:  1.98W  GRAD.:    16.716 HEAT: -23039.66
 CYCLE:   117 TIME: 111.438 TIME LEFT:  1.98W  GRAD.:    14.920 HEAT: -23039.32
 CYCLE:   118 TIME: 114.266 TIME LEFT:  1.98W  GRAD.:    19.801 HEAT: -23040.33
 CYCLE:   119 TIME: 111.273 TIME LEFT:  1.98W  GRAD.:    19.321 HEAT: -23040.65
 CYCLE:   120 TIME: 114.211 TIME LEFT:  1.98W  GRAD.:    13.492 HEAT: -23040.50
 CYCLE:   121 TIME: 100.695 TIME LEFT:  1.98W  GRAD.:    11.635 HEAT: -23040.70
 CYCLE:   122 TIME: 107.438 TIME LEFT:  1.98W  GRAD.:    19.176 HEAT: -23041.02
 CYCLE:   123 TIME: 101.867 TIME LEFT:  1.98W  GRAD.:    12.515 HEAT: -23041.30
 CYCLE:   124 TIME: 109.562 TIME LEFT:  1.98W  GRAD.:    12.570 HEAT: -23041.75
 CYCLE:   125 TIME: 100.664 TIME LEFT:  1.98W  GRAD.:     9.696 HEAT: -23042.04
 CYCLE:   126 TIME: 117.250 TIME LEFT:  1.98W  GRAD.:    15.895 HEAT: -23042.27
 RESTART FILE WRITTEN,      TIME LEFT:  1.98W  GRAD.:    13.586 HEAT: -23042.78
 CYCLE:   128 TIME:  95.641 TIME LEFT:  1.98W  GRAD.:    10.375 HEAT: -23042.54
 CYCLE:   129 TIME: 104.758 TIME LEFT:  1.98W  GRAD.:    10.316 HEAT: -23043.10
 CYCLE:   130 TIME: 100.195 TIME LEFT:  1.98W  GRAD.:    11.298 HEAT: -23042.76
 CYCLE:   131 TIME: 103.508 TIME LEFT:  1.98W  GRAD.:     7.888 HEAT: -23043.39
 CYCLE:   132 TIME: 100.086 TIME LEFT:  1.98W  GRAD.:     7.896 HEAT: -23043.30
 CYCLE:   133 TIME: 101.773 TIME LEFT:  1.98W  GRAD.:    11.895 HEAT: -23043.14
 CYCLE:   134 TIME: 104.867 TIME LEFT:  1.97W  GRAD.:    10.344 HEAT: -23043.46
 CYCLE:   135 TIME: 107.953 TIME LEFT:  1.97W  GRAD.:    15.742 HEAT: -23042.93
 CYCLE:   136 TIME: 100.961 TIME LEFT:  1.97W  GRAD.:     9.224 HEAT: -23043.26
 CYCLE:   137 TIME:  97.750 TIME LEFT:  1.97W  GRAD.:     7.143 HEAT: -23043.13
 CYCLE:   138 TIME:  97.500 TIME LEFT:  1.97W  GRAD.:    10.522 HEAT: -23043.37
 CYCLE:   139 TIME: 101.039 TIME LEFT:  1.97W  GRAD.:    11.718 HEAT: -23043.29
 CYCLE:   140 TIME:  99.938 TIME LEFT:  1.97W  GRAD.:    11.301 HEAT: -23043.21
 CYCLE:   141 TIME: 100.242 TIME LEFT:  1.97W  GRAD.:    13.412 HEAT: -23043.06
 CYCLE:   142 TIME:  98.297 TIME LEFT:  1.97W  GRAD.:     8.927 HEAT: -23043.64
 CYCLE:   143 TIME:  99.203 TIME LEFT:  1.97W  GRAD.:    11.974 HEAT: -23043.57
 CYCLE:   144 TIME: 100.414 TIME LEFT:  1.97W  GRAD.:     9.315 HEAT: -23043.91
 CYCLE:   145 TIME:  98.781 TIME LEFT:  1.97W  GRAD.:    10.562 HEAT: -23043.42
 CYCLE:   146 TIME: 100.648 TIME LEFT:  1.97W  GRAD.:    12.173 HEAT: -23043.73
 CYCLE:   147 TIME:  98.109 TIME LEFT:  1.97W  GRAD.:    11.463 HEAT: -23043.38
 CYCLE:   148 TIME:  97.180 TIME LEFT:  1.97W  GRAD.:    10.564 HEAT: -23043.98
 CYCLE:   149 TIME:  99.758 TIME LEFT:  1.97W  GRAD.:     8.283 HEAT: -23044.10
 CYCLE:   150 TIME: 118.375 TIME LEFT:  1.97W  GRAD.:    18.890 HEAT: -23043.66
 CYCLE:   151 TIME: 108.516 TIME LEFT:  1.97W  GRAD.:    12.654 HEAT: -23044.19
 CYCLE:   152 TIME: 100.414 TIME LEFT:  1.97W  GRAD.:     9.213 HEAT: -23043.99
 CYCLE:   153 TIME:  89.797 TIME LEFT:  1.97W  GRAD.:     7.981 HEAT: -23044.03
 CYCLE:   154 TIME:  98.180 TIME LEFT:  1.97W  GRAD.:    12.957 HEAT: -23044.28
 CYCLE:   155 TIME: 103.633 TIME LEFT:  1.97W  GRAD.:    10.361 HEAT: -23044.30
 CYCLE:   156 TIME: 101.695 TIME LEFT:  1.97W  GRAD.:    13.546 HEAT: -23044.31
 CYCLE:   157 TIME:  98.969 TIME LEFT:  1.97W  GRAD.:    10.139 HEAT: -23044.60
 CYCLE:   158 TIME: 103.414 TIME LEFT:  1.97W  GRAD.:     7.926 HEAT: -23044.84
 CYCLE:   159 TIME:  97.297 TIME LEFT:  1.97W  GRAD.:    11.157 HEAT: -23044.83
 CYCLE:   160 TIME:  94.805 TIME LEFT:  1.97W  GRAD.:    10.567 HEAT: -23044.70
 CYCLE:   161 TIME: 100.852 TIME LEFT:  1.97W  GRAD.:     7.551 HEAT: -23044.73
 CYCLE:   162 TIME:  99.234 TIME LEFT:  1.97W  GRAD.:    10.360 HEAT: -23044.77
 CYCLE:   163 TIME: 101.352 TIME LEFT:  1.97W  GRAD.:    10.816 HEAT: -23044.90
 CYCLE:   164 TIME:  99.047 TIME LEFT:  1.97W  GRAD.:     7.523 HEAT: -23044.59
 CYCLE:   165 TIME: 100.773 TIME LEFT:  1.97W  GRAD.:    11.112 HEAT: -23044.58
 CYCLE:   166 TIME: 102.445 TIME LEFT:  1.97W  GRAD.:     8.210 HEAT: -23044.74
 CYCLE:   167 TIME: 100.133 TIME LEFT:  1.97W  GRAD.:    11.204 HEAT: -23044.98
 CYCLE:   168 TIME: 104.523 TIME LEFT:  1.97W  GRAD.:    10.283 HEAT: -23044.74
 CYCLE:   169 TIME:  99.234 TIME LEFT:  1.97W  GRAD.:    13.410 HEAT: -23045.26
 CYCLE:   170 TIME:  93.516 TIME LEFT:  1.97W  GRAD.:    10.717 HEAT: -23045.41
 CYCLE:   171 TIME:  81.828 TIME LEFT:  1.97W  GRAD.:     8.120 HEAT: -23044.81
 CYCLE:   172 TIME:  82.383 TIME LEFT:  1.97W  GRAD.:     7.767 HEAT: -23044.82
 CYCLE:   173 TIME:  98.125 TIME LEFT:  1.97W  GRAD.:    14.524 HEAT: -23045.11
 CYCLE:   174 TIME: 102.195 TIME LEFT:  1.97W  GRAD.:    10.746 HEAT: -23045.18
 CYCLE:   175 TIME:  87.734 TIME LEFT:  1.97W  GRAD.:     9.965 HEAT: -23044.97
 CYCLE:   176 TIME:  97.734 TIME LEFT:  1.97W  GRAD.:     9.864 HEAT: -23045.20
 CYCLE:   177 TIME:  93.055 TIME LEFT:  1.97W  GRAD.:    12.098 HEAT: -23045.04
 CYCLE:   178 TIME: 102.648 TIME LEFT:  1.97W  GRAD.:     7.268 HEAT: -23045.25
 CYCLE:   179 TIME:  82.086 TIME LEFT:  1.97W  GRAD.:    10.793 HEAT: -23045.14
 CYCLE:   180 TIME:  84.703 TIME LEFT:  1.97W  GRAD.:    12.459 HEAT: -23045.16
 CYCLE:   181 TIME: 101.000 TIME LEFT:  1.97W  GRAD.:    11.341 HEAT: -23045.72
 CYCLE:   182 TIME: 105.828 TIME LEFT:  1.97W  GRAD.:    10.243 HEAT: -23045.53
 CYCLE:   183 TIME:  81.461 TIME LEFT:  1.97W  GRAD.:     7.383 HEAT: -23045.12
 CYCLE:   184 TIME:  82.305 TIME LEFT:  1.97W  GRAD.:     6.861 HEAT: -23045.37
 CYCLE:   185 TIME:  78.969 TIME LEFT:  1.97W  GRAD.:    10.897 HEAT: -23045.23
 CYCLE:   186 TIME:  85.164 TIME LEFT:  1.97W  GRAD.:    10.582 HEAT: -23045.20
 CYCLE:   187 TIME:  99.648 TIME LEFT:  1.97W  GRAD.:    13.671 HEAT: -23045.31
 CYCLE:   188 TIME: 102.047 TIME LEFT:  1.97W  GRAD.:     9.794 HEAT: -23045.35
 CYCLE:   189 TIME:  78.461 TIME LEFT:  1.97W  GRAD.:    11.800 HEAT: -23045.28
 CYCLE:   190 TIME:  83.727 TIME LEFT:  1.97W  GRAD.:    10.375 HEAT: -23045.13
 CYCLE:   191 TIME:  99.625 TIME LEFT:  1.97W  GRAD.:    13.140 HEAT: -23045.97
 CYCLE:   192 TIME:  78.406 TIME LEFT:  1.97W  GRAD.:    10.238 HEAT: -23045.53
 CYCLE:   193 TIME: 100.523 TIME LEFT:  1.97W  GRAD.:    12.815 HEAT: -23045.32
 CYCLE:   194 TIME:  83.867 TIME LEFT:  1.97W  GRAD.:    10.342 HEAT: -23045.08
 CYCLE:   195 TIME:  97.469 TIME LEFT:  1.97W  GRAD.:    13.542 HEAT: -23045.42
 CYCLE:   196 TIME:  93.680 TIME LEFT:  1.97W  GRAD.:     7.029 HEAT: -23045.49
 CYCLE:   197 TIME:  81.164 TIME LEFT:  1.96W  GRAD.:    10.571 HEAT: -23045.25
 CYCLE:   198 TIME:  82.539 TIME LEFT:  1.96W  GRAD.:     9.816 HEAT: -23045.34
 CYCLE:   199 TIME:  81.016 TIME LEFT:  1.96W  GRAD.:     6.619 HEAT: -23045.54
 CYCLE:   200 TIME:  82.805 TIME LEFT:  1.96W  GRAD.:     9.996 HEAT: -23045.50
 CYCLE:   201 TIME:  78.422 TIME LEFT:  1.96W  GRAD.:     9.479 HEAT: -23045.28
 CYCLE:   202 TIME: 100.227 TIME LEFT:  1.96W  GRAD.:    13.195 HEAT: -23045.51
 RESTART FILE WRITTEN,      TIME LEFT:  1.96W  GRAD.:    10.131 HEAT: -23045.47
 CYCLE:   204 TIME:  99.039 TIME LEFT:  1.96W  GRAD.:    14.796 HEAT: -23044.86
 CYCLE:   205 TIME:  88.094 TIME LEFT:  1.96W  GRAD.:     8.192 HEAT: -23045.73
 CYCLE:   206 TIME:  82.742 TIME LEFT:  1.96W  GRAD.:     9.538 HEAT: -23045.45
 CYCLE:   207 TIME:  80.297 TIME LEFT:  1.96W  GRAD.:     9.514 HEAT: -23045.23
 CYCLE:   208 TIME:  80.648 TIME LEFT:  1.96W  GRAD.:     6.347 HEAT: -23045.53
 CYCLE:   209 TIME:  78.703 TIME LEFT:  1.96W  GRAD.:     9.171 HEAT: -23045.49
 CYCLE:   210 TIME:  81.930 TIME LEFT:  1.96W  GRAD.:     5.841 HEAT: -23045.30
 CYCLE:   211 TIME:  80.703 TIME LEFT:  1.96W  GRAD.:     9.311 HEAT: -23045.36
 CYCLE:   212 TIME:  82.977 TIME LEFT:  1.96W  GRAD.:     8.958 HEAT: -23045.46
 CYCLE:   213 TIME:  97.375 TIME LEFT:  1.96W  GRAD.:    12.075 HEAT: -23045.28
 CYCLE:   214 TIME: 101.711 TIME LEFT:  1.96W  GRAD.:    10.018 HEAT: -23045.43
 CYCLE:   215 TIME: 101.227 TIME LEFT:  1.96W  GRAD.:    11.486 HEAT: -23045.21
 CYCLE:   216 TIME:  98.266 TIME LEFT:  1.96W  GRAD.:    10.328 HEAT: -23045.31
 CYCLE:   217 TIME: 103.086 TIME LEFT:  1.96W  GRAD.:     5.980 HEAT: -23045.80
 CYCLE:   218 TIME:  79.672 TIME LEFT:  1.96W  GRAD.:     9.684 HEAT: -23045.29
 CYCLE:   219 TIME:  81.852 TIME LEFT:  1.96W  GRAD.:     6.115 HEAT: -23045.23
 CYCLE:   220 TIME:  78.984 TIME LEFT:  1.96W  GRAD.:     5.788 HEAT: -23045.42
 CYCLE:   221 TIME:  86.344 TIME LEFT:  1.96W  GRAD.:    11.551 HEAT: -23045.36
 CYCLE:   222 TIME:  81.242 TIME LEFT:  1.96W  GRAD.:     9.186 HEAT: -23045.58
 CYCLE:   223 TIME:  81.062 TIME LEFT:  1.96W  GRAD.:     9.739 HEAT: -23045.37
 CYCLE:   224 TIME:  77.906 TIME LEFT:  1.96W  GRAD.:     5.839 HEAT: -23045.48
 CYCLE:   225 TIME: 103.430 TIME LEFT:  1.96W  GRAD.:     5.777 HEAT: -23045.82
 CYCLE:   226 TIME:  79.820 TIME LEFT:  1.96W  GRAD.:    12.420 HEAT: -23045.26
 CYCLE:   227 TIME:  77.984 TIME LEFT:  1.96W  GRAD.:     9.210 HEAT: -23045.40
 CYCLE:   228 TIME:  82.227 TIME LEFT:  1.96W  GRAD.:     8.435 HEAT: -23045.21
 CYCLE:   229 TIME:  80.562 TIME LEFT:  1.96W  GRAD.:     8.898 HEAT: -23045.44
 CYCLE:   230 TIME:  81.602 TIME LEFT:  1.96W  GRAD.:    10.776 HEAT: -23045.14
 CYCLE:   231 TIME:  78.125 TIME LEFT:  1.96W  GRAD.:     8.922 HEAT: -23045.50
 CYCLE:   232 TIME:  80.688 TIME LEFT:  1.96W  GRAD.:     9.177 HEAT: -23045.01
 CYCLE:   233 TIME:  77.688 TIME LEFT:  1.96W  GRAD.:     9.734 HEAT: -23045.46
 CYCLE:   234 TIME:  83.570 TIME LEFT:  1.96W  GRAD.:     7.312 HEAT: -23045.13
 CYCLE:   235 TIME:  80.977 TIME LEFT:  1.96W  GRAD.:     9.051 HEAT: -23045.45
 CYCLE:   236 TIME:  79.219 TIME LEFT:  1.96W  GRAD.:    10.518 HEAT: -23045.55
 CYCLE:   237 TIME:  78.281 TIME LEFT:  1.96W  GRAD.:     5.951 HEAT: -23045.48
 CYCLE:   238 TIME: 100.273 TIME LEFT:  1.96W  GRAD.:     9.309 HEAT: -23045.66
 CYCLE:   239 TIME:  98.234 TIME LEFT:  1.96W  GRAD.:    11.228 HEAT: -23045.62
 CYCLE:   240 TIME:  78.109 TIME LEFT:  1.96W  GRAD.:     9.606 HEAT: -23044.75
 CYCLE:   241 TIME:  79.766 TIME LEFT:  1.96W  GRAD.:     6.536 HEAT: -23045.11
 CYCLE:   242 TIME:  97.453 TIME LEFT:  1.96W  GRAD.:    13.021 HEAT: -23045.30
 CYCLE:   243 TIME:  82.617 TIME LEFT:  1.96W  GRAD.:     6.387 HEAT: -23045.40
 CYCLE:   244 TIME:  79.898 TIME LEFT:  1.96W  GRAD.:    11.371 HEAT: -23045.61
 CYCLE:   245 TIME:  80.281 TIME LEFT:  1.96W  GRAD.:     5.692 HEAT: -23045.40
 CYCLE:   246 TIME:  77.875 TIME LEFT:  1.96W  GRAD.:     5.586 HEAT: -23045.60
 CYCLE:   247 TIME:  82.055 TIME LEFT:  1.96W  GRAD.:    12.094 HEAT: -23045.32
 CYCLE:   248 TIME:  80.250 TIME LEFT:  1.96W  GRAD.:     8.791 HEAT: -23045.48
 CYCLE:   249 TIME:  97.062 TIME LEFT:  1.96W  GRAD.:     8.112 HEAT: -23045.08
 CYCLE:   250 TIME:  78.938 TIME LEFT:  1.96W  GRAD.:     9.426 HEAT: -23045.31
 CYCLE:   251 TIME:  97.719 TIME LEFT:  1.96W  GRAD.:    12.171 HEAT: -23045.23
 CYCLE:   252 TIME:  81.164 TIME LEFT:  1.96W  GRAD.:     7.023 HEAT: -23045.35
 CYCLE:   253 TIME:  83.430 TIME LEFT:  1.96W  GRAD.:     9.116 HEAT: -23045.58
 CYCLE:   254 TIME: 105.312 TIME LEFT:  1.96W  GRAD.:     8.839 HEAT: -23045.68
 CYCLE:   255 TIME: 101.750 TIME LEFT:  1.96W  GRAD.:    11.560 HEAT: -23045.21
 CYCLE:   256 TIME:  98.133 TIME LEFT:  1.96W  GRAD.:    10.351 HEAT: -23044.94
 CYCLE:   257 TIME:  80.219 TIME LEFT:  1.96W  GRAD.:     7.071 HEAT: -23045.41
 CYCLE:   258 TIME:  81.523 TIME LEFT:  1.96W  GRAD.:     6.083 HEAT: -23045.52
 CYCLE:   259 TIME:  79.031 TIME LEFT:  1.96W  GRAD.:    12.574 HEAT: -23045.00
 CYCLE:   260 TIME:  78.688 TIME LEFT:  1.96W  GRAD.:     8.245 HEAT: -23045.17
 CYCLE:   261 TIME:  96.234 TIME LEFT:  1.96W  GRAD.:    11.130 HEAT: -23045.11
 CYCLE:   262 TIME:  97.703 TIME LEFT:  1.96W  GRAD.:     6.409 HEAT: -23045.67
 CYCLE:   263 TIME:  99.969 TIME LEFT:  1.96W  GRAD.:    12.473 HEAT: -23044.90
 CYCLE:   264 TIME:  97.453 TIME LEFT:  1.96W  GRAD.:     8.067 HEAT: -23045.13
 CYCLE:   265 TIME:  98.641 TIME LEFT:  1.96W  GRAD.:    11.120 HEAT: -23045.09
 CYCLE:   266 TIME:  96.609 TIME LEFT:  1.95W  GRAD.:    12.150 HEAT: -23045.74
 CYCLE:   267 TIME:  96.016 TIME LEFT:  1.95W  GRAD.:    27.362 HEAT: -23045.24
 CYCLE:   268 TIME:  89.812 TIME LEFT:  1.95W  GRAD.:    50.392 HEAT: -23044.15
 CYCLE:   269 TIME:  97.656 TIME LEFT:  1.95W  GRAD.:    34.467 HEAT: -23044.98
 CYCLE:   270 TIME: 114.250 TIME LEFT:  1.95W  GRAD.:    14.540 HEAT: -23045.84
 CYCLE:   271 TIME: 115.508 TIME LEFT:  1.95W  GRAD.:    11.982 HEAT: -23045.49
 CYCLE:   272 TIME: 113.922 TIME LEFT:  1.95W  GRAD.:    16.135 HEAT: -23046.10
 CYCLE:   273 TIME: 108.625 TIME LEFT:  1.95W  GRAD.:    18.684 HEAT: -23045.89
 CYCLE:   274 TIME:  97.922 TIME LEFT:  1.95W  GRAD.:     7.258 HEAT: -23046.12
 CYCLE:   275 TIME: 106.359 TIME LEFT:  1.95W  GRAD.:    13.727 HEAT: -23047.07
 CYCLE:   276 TIME:  98.875 TIME LEFT:  1.95W  GRAD.:     6.315 HEAT: -23047.08
 CYCLE:   277 TIME: 107.766 TIME LEFT:  1.95W  GRAD.:     6.771 HEAT: -23047.36
 CYCLE:   278 TIME: 114.625 TIME LEFT:  1.95W  GRAD.:    26.418 HEAT: -23047.97
 CYCLE:   279 TIME: 107.781 TIME LEFT:  1.95W  GRAD.:    49.774 HEAT: -23045.31
 CYCLE:   280 TIME: 114.617 TIME LEFT:  1.95W  GRAD.:    17.490 HEAT: -23047.98
 CYCLE:   281 TIME: 107.969 TIME LEFT:  1.95W  GRAD.:    17.453 HEAT: -23048.42
 CYCLE:   282 TIME:  96.047 TIME LEFT:  1.95W  GRAD.:    31.808 HEAT: -23047.48
 RESTART FILE WRITTEN,      TIME LEFT:  1.95W  GRAD.:     7.595 HEAT: -23048.17
 CYCLE:   284 TIME:  99.047 TIME LEFT:  1.95W  GRAD.:     8.157 HEAT: -23048.40
 CYCLE:   285 TIME:  95.984 TIME LEFT:  1.95W  GRAD.:    12.396 HEAT: -23048.84
 CYCLE:   286 TIME: 101.086 TIME LEFT:  1.95W  GRAD.:     9.032 HEAT: -23049.07
 CYCLE:   287 TIME:  97.953 TIME LEFT:  1.95W  GRAD.:     7.961 HEAT: -23048.79
 CYCLE:   288 TIME:  99.516 TIME LEFT:  1.95W  GRAD.:     5.660 HEAT: -23048.88
 CYCLE:   289 TIME:  97.938 TIME LEFT:  1.95W  GRAD.:    12.501 HEAT: -23048.60
 CYCLE:   290 TIME:  96.703 TIME LEFT:  1.95W  GRAD.:     5.018 HEAT: -23048.59
 CYCLE:   291 TIME:  91.773 TIME LEFT:  1.95W  GRAD.:     4.653 HEAT: -23048.70
 Starting final SCF to re-set LMO's, geometry, etc.


          CURRENT BEST VALUE OF HEAT OF FORMATION = -23049.071178
HTML OUTPUT noopt opt-H setpi t=2W GNORM=5 charge=-1 MOZYME eps=78.4
 Optimizing the positions of the hydrogen atoms

  N(ATOM      1  N   ALA A   3)  -3.00600000 +0   8.92000000 +0 -17.61200000 +0
  C(ATOM      2  CA  ALA A   3)  -4.03700000 +0   7.97500000 +0 -17.19400000 +0
  C(ATOM      3  C   ALA A   3)  -3.61900000 +0   6.49700000 +0 -17.34300000 +0
  O(ATOM      4  O   ALA A   3)  -2.68600000 +0   6.06300000 +0 -18.09100000 +0
  C(ATOM      5  CB  ALA A   3)  -5.48900000 +0   8.24200000 +0 -17.85500000 +0
  H(ATOM      6 1H   ALA A   3)  -2.09577060 +1   8.65715432 +1 -17.23733482 +1
  H(ATOM      7 2H   ALA A   3)  -2.91611616 +1   8.95085308 +1 -18.62496349 +1
  H(ATOM      8  HA  ALA A   3)  -4.18701597 +1   8.16968919 +1 -16.08571298 +1
  H(ATOM      9 1HB  ALA A   3)  -5.74145191 +1   9.29884332 +1 -17.74033590 +1
  H(ATOM     10 2HB  ALA A   3)  -5.47796964 +1   7.99694696 +1 -18.91847348 +1
  H(ATOM     11 3HB  ALA A   3)  -6.24556610 +1   7.63941351 +1 -17.35289803 +1
  N(ATOM     12  N   SER A   4)  -4.31300000 +0   5.72700000 +0 -16.54100000 +0
  C(ATOM     13  CA  SER A   4)  -3.93800000 +0   4.38400000 +0 -16.30100000 +0
  C(ATOM     14  C   SER A   4)  -5.21800000 +0   3.62600000 +0 -16.07100000 +0
  O(ATOM     15  O   SER A   4)  -6.29000000 +0   4.21700000 +0 -15.91200000 +0
  C(ATOM     16  CB  SER A   4)  -3.04100000 +0   4.32100000 +0 -15.07500000 +0
  O(ATOM     17  OG  SER A   4)  -3.67200000 +0   4.96600000 +0 -13.98000000 +0
  H(ATOM     18  H   SER A   4)  -5.10934990 +1   6.07691325 +1 -15.97618995 +1
  H(ATOM     19  HA  SER A   4)  -3.37590360 +1   3.94485776 +1 -17.19349989 +1
  H(ATOM     20 1HB  SER A   4)  -2.76795309 +1   3.28712935 +1 -14.79621967 +1
  H(ATOM     21 2HB  SER A   4)  -2.10974950 +1   4.91577444 +1 -15.21010117 +1
  H(ATOM     22  HG  SER A   4)  -4.43646930 +1   4.43818967 +1 -13.65711916 +1
  N(ATOM     23  N   ARG A   5)  -5.11200000 +0   2.32600000 +0 -16.11200000 +0
  C(ATOM     24  CA  ARG A   5)  -6.25200000 +0   1.47000000 +0 -15.97300000 +0
  C(ATOM     25  C   ARG A   5)  -5.87100000 +0   0.50300000 +0 -14.86500000 +0
  O(ATOM     26  O   ARG A   5)  -4.77800000 +0  -0.03600000 +0 -14.87200000 +0
  C(ATOM     27  CB  ARG A   5)  -6.49200000 +0   0.79000000 +0 -17.31000000 +0
  C(ATOM     28  CG  ARG A   5)  -7.63900000 +0  -0.28200000 +0 -17.37300000 +0
  C(ATOM     29  CD  ARG A   5)  -9.02900000 +0   0.34400000 +0 -17.26800000 +0
  N(ATOM     30  NE  ARG A   5)  -9.97100000 +0  -0.25300000 +0 -18.22200000 +0
  C(ATOM     31  CZ  ARG A   5) -11.05200000 +0  -0.98700000 +0 -17.93400000 +0
  N(ATOM     32  NH1 ARG A   5) -11.42000000 +0  -1.27100000 +0 -16.67100000 +0
  N(ATOM     33  NH2 ARG A   5) -11.79500000 +0  -1.44500000 +0 -18.95300000 +0
  H(ATOM     34  H   ARG A   5)  -4.22861572 +1   1.85184941 +1 -16.37756899 +1
  H(ATOM     35  HA  ARG A   5)  -7.17694815 +1   2.06754044 +1 -15.69012222 +1
  H(ATOM     36 1HB  ARG A   5)  -6.69789594 +1   1.56380051 +1 -18.07907746 +1
  H(ATOM     37 2HB  ARG A   5)  -5.55802275 +1   0.28064243 +1 -17.63613473 +1
  H(ATOM     38 1HG  ARG A   5)  -7.49111027 +1  -1.03730245 +1 -16.57682812 +1
  H(ATOM     39 2HG  ARG A   5)  -7.52948369 +1  -0.84859813 +1 -18.31909632 +1
  H(ATOM     40 1HD  ARG A   5)  -9.40934689 +1   0.27619748 +1 -16.22173267 +1
  H(ATOM     41 2HD  ARG A   5)  -8.98282430 +1   1.44175332 +1 -17.48661006 +1
  H(ATOM     42  HE  ARG A   5)  -9.73380376 +1  -0.11451114 +1 -19.20350479 +1
  H(ATOM     43 1HH1 ARG A   5) -11.83398107 +1  -2.15471286 +1 -16.43220927 +1
  H(ATOM     44 2HH1 ARG A   5) -10.98099468 +1  -0.79335122 +1 -15.89779089 +1
  H(ATOM     45  HH2 ARG A   5) -12.62341206 +1  -1.96688481 +1 -18.71295067 +1
  N(ATOM     46  N   LEU A   6)  -6.75500000 +0   0.31900000 +0 -13.90100000 +0
  C(ATOM     47  CA  LEU A   6)  -6.51900000 +0  -0.57800000 +0 -12.76000000 +0
  C(ATOM     48  C   LEU A   6)  -6.71300000 +0  -2.01800000 +0 -13.08300000 +0
  O(ATOM     49  O   LEU A   6)  -7.74400000 +0  -2.35800000 +0 -13.65000000 +0
  C(ATOM     50  CB  LEU A   6)  -7.50200000 +0  -0.26500000 +0 -11.68100000 +0
  C(ATOM     51  CG  LEU A   6)  -7.28000000 +0   1.06400000 +0 -10.97100000 +0
  C(ATOM     52  CD1 LEU A   6)  -8.50400000 +0   1.30600000 +0 -10.09200000 +0
  C(ATOM     53  CD2 LEU A   6)  -5.98300000 +0   1.10900000 +0 -10.21300000 +0
  H(ATOM     54  H   LEU A   6)  -7.71152008 +1   0.69054593 +1 -13.95939179 +1
  H(ATOM     55  HA  LEU A   6)  -5.44648977 +1  -0.38405652 +1 -12.40759704 +1
  H(ATOM     56 1HB  LEU A   6)  -8.54369795 +1  -0.29274461 +1 -12.09231357 +1
  H(ATOM     57 2HB  LEU A   6)  -7.50112466 +1  -1.07718013 +1 -10.91401095 +1
  H(ATOM     58  HG  LEU A   6)  -7.25393148 +1   1.88226196 +1 -11.74638568 +1
  H(ATOM     59 1HD1 LEU A   6)  -9.43071541 +1   1.33296205 +1 -10.67851267 +1
  H(ATOM     60 2HD1 LEU A   6)  -8.61860725 +1   0.53537629 +1  -9.32214267 +1
  H(ATOM     61 3HD1 LEU A   6)  -8.43351998 +1   2.26674651 +1  -9.56547786 +1
  H(ATOM     62 1HD2 LEU A   6)  -5.10482570 +1   1.07866271 +1 -10.87600069 +1
  H(ATOM     63 2HD2 LEU A   6)  -5.88574326 +1   2.03932821 +1  -9.63327742 +1
  H(ATOM     64 3HD2 LEU A   6)  -5.88838602 +1   0.27913095 +1  -9.50443726 +1
  N(ATOM     65  N   TYR A   7)  -5.72600000 +0  -2.85800000 +0 -12.73200000 +0
  C(ATOM     66  CA  TYR A   7)  -5.74100000 +0  -4.29000000 +0 -12.83500000 +0
  C(ATOM     67  C   TYR A   7)  -5.32700000 +0  -4.90200000 +0 -11.52000000 +0
  O(ATOM     68  O   TYR A   7)  -4.71900000 +0  -4.23700000 +0 -10.65100000 +0
  C(ATOM     69  CB  TYR A   7)  -4.77000000 +0  -4.80200000 +0 -13.89600000 +0
  C(ATOM     70  CG  TYR A   7)  -5.15400000 +0  -4.51000000 +0 -15.30100000 +0
  C(ATOM     71  CD1 TYR A   7)  -4.91200000 +0  -3.24000000 +0 -15.82400000 +0
  C(ATOM     72  CD2 TYR A   7)  -5.64100000 +0  -5.47900000 +0 -16.13200000 +0
  C(ATOM     73  CE1 TYR A   7)  -5.19300000 +0  -2.94300000 +0 -17.09300000 +0
  C(ATOM     74  CE2 TYR A   7)  -5.95200000 +0  -5.19900000 +0 -17.45300000 +0
  C(ATOM     75  CZ  TYR A   7)  -5.73400000 +0  -3.89100000 +0 -17.92400000 +0
  O(ATOM     76  OH  TYR A   7)  -6.01200000 +0  -3.50000000 +0 -19.23100000 +0
  H(ATOM     77  H   TYR A   7)  -4.85477470 +1  -2.48509121 +1 -12.29238369 +1
  H(ATOM     78  HA  TYR A   7)  -6.79331336 +1  -4.63357675 +1 -13.11808145 +1
  H(ATOM     79 1HB  TYR A   7)  -4.63782506 +1  -5.90380464 +1 -13.77134728 +1
  H(ATOM     80 2HB  TYR A   7)  -3.75472646 +1  -4.37293433 +1 -13.70104301 +1
  H(ATOM     81  HD1 TYR A   7)  -4.50014587 +1  -2.46657875 +1 -15.15500420 +1
  H(ATOM     82  HD2 TYR A   7)  -5.81071484 +1  -6.49862472 +1 -15.76731732 +1
  H(ATOM     83  HE1 TYR A   7)  -5.00308773 +1  -1.93368675 +1 -17.48329551 +1
  H(ATOM     84  HE2 TYR A   7)  -6.34656791 +1  -5.96152778 +1 -18.12235139 +1
  H(ATOM     85  HH  TYR A   7)  -5.67848383 +1  -2.57781303 +1 -19.41791401 +1
  N(ATOM     86  N   THR A   8)  -5.68000000 +0  -6.16600000 +0 -11.33800000 +0
  C(ATOM     87  CA  THR A   8)  -5.29900000 +0  -6.91500000 +0 -10.16000000 +0
  C(ATOM     88  C   THR A   8)  -4.46700000 +0  -8.09500000 +0 -10.52300000 +0
  O(ATOM     89  O   THR A   8)  -4.58600000 +0  -8.61300000 +0 -11.61300000 +0
  C(ATOM     90  CB  THR A   8)  -6.54600000 +0  -7.43700000 +0  -9.36600000 +0
  O(ATOM     91  OG1 THR A   8)  -7.38800000 +0  -8.25100000 +0 -10.23400000 +0
  C(ATOM     92  CG2 THR A   8)  -7.36500000 +0  -6.25900000 +0  -8.81600000 +0
  H(ATOM     93  H   THR A   8)  -6.26878705 +1  -6.67776792 +1 -12.01109352 +1
  H(ATOM     94  HA  THR A   8)  -4.72654875 +1  -6.22534825 +1  -9.44832699 +1
  H(ATOM     95  HB  THR A   8)  -6.20513799 +1  -8.09363369 +1  -8.53295814 +1
  H(ATOM     96  HG1 THR A   8)  -7.11051967 +1  -9.18256691 +1 -10.14886927 +1
  H(ATOM     97 1HG2 THR A   8)  -8.18506342 +1  -6.59626564 +1  -8.16502415 +1
  H(ATOM     98 2HG2 THR A   8)  -6.73729147 +1  -5.56981422 +1  -8.24352732 +1
  H(ATOM     99 3HG2 THR A   8)  -7.83511386 +1  -5.69231004 +1  -9.63272557 +1
  N(ATOM    100  N   LEU A   9)  -3.68600000 +0  -8.59000000 +0  -9.57400000 +0
  C(ATOM    101  CA  LEU A   9)  -2.98100000 +0  -9.81200000 +0  -9.74200000 +0
  C(ATOM    102  C   LEU A   9)  -2.91100000 +0 -10.43400000 +0  -8.38000000 +0
  O(ATOM    103  O   LEU A   9)  -2.52000000 +0  -9.76000000 +0  -7.40100000 +0
  C(ATOM    104  CB  LEU A   9)  -1.57500000 +0  -9.56400000 +0 -10.30200000 +0
  C(ATOM    105  CG  LEU A   9)  -0.71200000 +0 -10.78300000 +0 -10.54800000 +0
  C(ATOM    106  CD1 LEU A   9)  -1.41100000 +0 -11.72200000 +0 -11.55900000 +0
  C(ATOM    107  CD2 LEU A   9)   0.67300000 +0 -10.42500000 +0 -11.00600000 +0
  H(ATOM    108  H   LEU A   9)  -3.39261398 +1  -8.02299148 +1  -8.74718038 +1
  H(ATOM    109  HA  LEU A   9)  -3.53740251 +1 -10.48708914 +1 -10.47379062 +1
  H(ATOM    110 1HB  LEU A   9)  -1.03594993 +1  -8.87001003 +1  -9.61583737 +1
  H(ATOM    111 2HB  LEU A   9)  -1.67973230 +1  -8.99537013 +1 -11.25524139 +1
  H(ATOM    112  HG  LEU A   9)  -0.62130320 +1 -11.34950749 +1  -9.57899255 +1
  H(ATOM    113 1HD1 LEU A   9)  -2.25913662 +1 -12.24405423 +1 -11.11481582 +1
  H(ATOM    114 2HD1 LEU A   9)  -1.78005236 +1 -11.16402206 +1 -12.42907446 +1
  H(ATOM    115 3HD1 LEU A   9)  -0.70783117 +1 -12.46474184 +1 -11.95601932 +1
  H(ATOM    116 1HD2 LEU A   9)   1.18117902 +1  -9.73790863 +1 -10.31968713 +1
  H(ATOM    117 2HD2 LEU A   9)   1.30638973 +1 -11.31755530 +1 -11.10861756 +1
  H(ATOM    118 3HD2 LEU A   9)   0.66987674 +1  -9.94978287 +1 -12.00222506 +1
  N(ATOM    119  N   VAL A  10)  -3.28600000 +0 -11.72500000 +0  -8.30700000 +0
  C(ATOM    120  CA  VAL A  10)  -3.34600000 +0 -12.43100000 +0  -7.04200000 +0
  C(ATOM    121  C   VAL A  10)  -2.47500000 +0 -13.69800000 +0  -7.06300000 +0
  O(ATOM    122  O   VAL A  10)  -2.61800000 +0 -14.53100000 +0  -7.95200000 +0
  C(ATOM    123  CB  VAL A  10)  -4.78300000 +0 -12.87100000 +0  -6.72400000 +0
  C(ATOM    124  CG1 VAL A  10)  -4.84700000 +0 -13.72700000 +0  -5.45800000 +0
  C(ATOM    125  CG2 VAL A  10)  -5.82900000 +0 -11.69900000 +0  -6.81700000 +0
  H(ATOM    126  H   VAL A  10)  -3.63669120 +1 -12.25276555 +1  -9.11746381 +1
  H(ATOM    127  HA  VAL A  10)  -2.98772826 +1 -11.73103513 +1  -6.21993689 +1
  H(ATOM    128  HB  VAL A  10)  -5.09099049 +1 -13.55886049 +1  -7.57274869 +1
  H(ATOM    129 1HG1 VAL A  10)  -4.29867827 +1 -14.66912178 +1  -5.57707739 +1
  H(ATOM    130 2HG1 VAL A  10)  -4.43623912 +1 -13.20317124 +1  -4.58657230 +1
  H(ATOM    131 3HG1 VAL A  10)  -5.88649124 +1 -13.98498893 +1  -5.21878054 +1
  H(ATOM    132 1HG2 VAL A  10)  -5.83362316 +1 -11.28628993 +1  -7.83013408 +1
  H(ATOM    133 2HG2 VAL A  10)  -6.83505601 +1 -12.07418762 +1  -6.60405399 +1
  H(ATOM    134 3HG2 VAL A  10)  -5.58525685 +1 -10.90667897 +1  -6.10715902 +1
  N(ATOM    135  N   LEU A  11)  -1.54500000 +0 -13.76800000 +0  -6.12200000 +0
  C(ATOM    136  CA  LEU A  11)  -0.69100000 +0 -14.93600000 +0  -5.88500000 +0
  C(ATOM    137  C   LEU A  11)  -1.03500000 +0 -15.63800000 +0  -4.60000000 +0
  O(ATOM    138  O   LEU A  11)  -0.95100000 +0 -15.04600000 +0  -3.52000000 +0
  C(ATOM    139  CB  LEU A  11)   0.79000000 +0 -14.48000000 +0  -5.80800000 +0
  C(ATOM    140  CG  LEU A  11)   1.42100000 +0 -14.14600000 +0  -7.18400000 +0
  C(ATOM    141  CD1 LEU A  11)   1.29600000 +0 -15.32700000 +0  -8.20700000 +0
  C(ATOM    142  CD2 LEU A  11)   0.98500000 +0 -12.89600000 +0  -7.84000000 +0
  H(ATOM    143  H   LEU A  11)  -1.40529775 +1 -13.01305513 +1  -5.42841991 +1
  H(ATOM    144  HA  LEU A  11)  -0.80316545 +1 -15.63720614 +1  -6.77157737 +1
  H(ATOM    145 1HB  LEU A  11)   1.38872487 +1 -15.27162701 +1  -5.31863581 +1
  H(ATOM    146 2HB  LEU A  11)   0.86645517 +1 -13.59360941 +1  -5.14342190 +1
  H(ATOM    147  HG  LEU A  11)   2.52657603 +1 -14.05129579 +1  -6.96190902 +1
  H(ATOM    148 1HD1 LEU A  11)   1.59326909 +1 -16.27528865 +1  -7.75087487 +1
  H(ATOM    149 2HD1 LEU A  11)   0.26866705 +1 -15.43397130 +1  -8.56462619 +1
  H(ATOM    150 3HD1 LEU A  11)   1.93655127 +1 -15.15049166 +1  -9.07482308 +1
  H(ATOM    151 1HD2 LEU A  11)   1.05369013 +1 -12.02404921 +1  -7.16979200 +1
  H(ATOM    152 2HD2 LEU A  11)   1.58632279 +1 -12.65874028 +1  -8.72955300 +1
  H(ATOM    153 3HD2 LEU A  11)  -0.06492288 +1 -12.93660325 +1  -8.16988476 +1
  N(ATOM    154  N   VAL A  12)  -1.39600000 +0 -16.92100000 +0  -4.71400000 +0
  C(ATOM    155  CA  VAL A  12)  -1.62100000 +0 -17.78000000 +0  -3.62200000 +0
  C(ATOM    156  C   VAL A  12)  -0.26300000 +0 -18.41700000 +0  -3.31100000 +0
  O(ATOM    157  O   VAL A  12)   0.23100000 +0 -19.27900000 +0  -4.07200000 +0
  C(ATOM    158  CB  VAL A  12)  -2.67700000 +0 -18.83800000 +0  -3.98500000 +0
  C(ATOM    159  CG1 VAL A  12)  -2.91200000 +0 -19.83800000 +0  -2.81300000 +0
  C(ATOM    160  CG2 VAL A  12)  -4.01900000 +0 -18.11400000 +0  -4.36300000 +0
  H(ATOM    161  H   VAL A  12)  -1.54620837 +1 -17.32687983 +1  -5.66535581 +1
  H(ATOM    162  HA  VAL A  12)  -1.99181273 +1 -17.20314586 +1  -2.71476415 +1
  H(ATOM    163  HB  VAL A  12)  -2.32683215 +1 -19.42242293 +1  -4.87110814 +1
  H(ATOM    164 1HG1 VAL A  12)  -1.98736522 +1 -20.38303510 +1  -2.58976104 +1
  H(ATOM    165 2HG1 VAL A  12)  -3.23320204 +1 -19.31896536 +1  -1.90684319 +1
  H(ATOM    166 3HG1 VAL A  12)  -3.68539941 +1 -20.56477975 +1  -3.08073865 +1
  H(ATOM    167 1HG2 VAL A  12)  -3.88389458 +1 -17.47937856 +1  -5.24574104 +1
  H(ATOM    168 2HG2 VAL A  12)  -4.79148093 +1 -18.84924916 +1  -4.60224553 +1
  H(ATOM    169 3HG2 VAL A  12)  -4.37595098 +1 -17.49131112 +1  -3.54136335 +1
  N(ATOM    170  N   LEU A  13)   0.38000000 +0 -17.91700000 +0  -2.26800000 +0
  C(ATOM    171  CA  LEU A  13)   1.71600000 +0 -18.32300000 +0  -1.87300000 +0
  C(ATOM    172  C   LEU A  13)   1.61600000 +0 -18.97800000 +0  -0.50800000 +0
  O(ATOM    173  O   LEU A  13)   1.26800000 +0 -18.31800000 +0   0.51500000 +0
  C(ATOM    174  CB  LEU A  13)   2.61300000 +0 -17.13400000 +0  -1.80500000 +0
  C(ATOM    175  CG  LEU A  13)   4.08500000 +0 -17.29300000 +0  -1.35100000 +0
  C(ATOM    176  CD1 LEU A  13)   4.77700000 +0 -18.32100000 +0  -2.23200000 +0
  C(ATOM    177  CD2 LEU A  13)   4.70600000 +0 -15.92600000 +0  -1.47400000 +0
  H(ATOM    178  H   LEU A  13)  -0.02553547 +1 -17.13666996 +1  -1.72321526 +1
  H(ATOM    179  HA  LEU A  13)   2.11445599 +1 -19.06298215 +1  -2.64416990 +1
  H(ATOM    180 1HB  LEU A  13)   2.61888249 +1 -16.63614297 +1  -2.80516755 +1
  H(ATOM    181 2HB  LEU A  13)   2.14881555 +1 -16.37224136 +1  -1.12629024 +1
  H(ATOM    182  HG  LEU A  13)   4.10800890 +1 -17.63498175 +1  -0.28654099 +1
  H(ATOM    183 1HD1 LEU A  13)   4.36206167 +1 -19.32830150 +1  -2.08038552 +1
  H(ATOM    184 2HD1 LEU A  13)   4.68954477 +1 -18.07588536 +1  -3.29538563 +1
  H(ATOM    185 3HD1 LEU A  13)   5.84883177 +1 -18.39070260 +1  -1.99740257 +1
  H(ATOM    186 1HD2 LEU A  13)   4.16551954 +1 -15.16696548 +1  -0.89305706 +1
  H(ATOM    187 2HD2 LEU A  13)   5.74180640 +1 -15.91724014 +1  -1.10389239 +1
  H(ATOM    188 3HD2 LEU A  13)   4.73395606 +1 -15.56772434 +1  -2.51168044 +1
  N(ATOM    189  N   GLN A  14)   1.93900000 +0 -20.26700000 +0  -0.50000000 +0
  C(ATOM    190  CA  GLN A  14)   1.87600000 +0 -21.11200000 +0   0.68200000 +0
  C(ATOM    191  C   GLN A  14)   3.34900000 +0 -21.37200000 +0   1.03700000 +0
  O(ATOM    192  O   GLN A  14)   4.21700000 +0 -21.01400000 +0   0.23500000 +0
  C(ATOM    193  CB  GLN A  14)   1.07400000 +0 -22.36300000 +0   0.38200000 +0
  C(ATOM    194  CG  GLN A  14)  -0.41800000 +0 -22.05300000 +0   0.13800000 +0
  C(ATOM    195  CD  GLN A  14)  -1.31300000 +0 -23.23900000 +0   0.04500000 +0
  O(ATOM    196  OE1 GLN A  14)  -0.88100000 +0 -24.38500000 +0  -0.18100000 +0
  N(ATOM    197  NE2 GLN A  14)  -2.59900000 +0 -22.98800000 +0   0.23300000 +0
  H(ATOM    198  H   GLN A  14)   2.39546664 +1 -20.70940612 +1  -1.31561743 +1
  H(ATOM    199  HA  GLN A  14)   1.40316214 +1 -20.53882250 +1   1.53516262 +1
  H(ATOM    200 1HB  GLN A  14)   1.48515418 +1 -22.88653980 +1  -0.51373382 +1
  H(ATOM    201 2HB  GLN A  14)   1.17222003 +1 -23.10176071 +1   1.20424095 +1
  H(ATOM    202 1HG  GLN A  14)  -0.48863609 +1 -21.48141633 +1  -0.82345293 +1
  H(ATOM    203 2HG  GLN A  14)  -0.77415701 +1 -21.33175307 +1   0.90306364 +1
  H(ATOM    204 1HE2 GLN A  14)  -3.28141500 +1 -23.74016724 +1   0.24683572 +1
  H(ATOM    205 2HE2 GLN A  14)  -2.94635934 +1 -22.09819308 +1   0.53540114 +1
  N(ATOM    206  N   PRO A  15)   3.63100000 +0 -21.94900000 +0   2.21500000 +0
  C(ATOM    207  CA  PRO A  15)   5.02700000 +0 -21.97800000 +0   2.64600000 +0
  C(ATOM    208  C   PRO A  15)   6.02700000 +0 -22.62100000 +0   1.65800000 +0
  O(ATOM    209  O   PRO A  15)   7.17300000 +0 -22.14600000 +0   1.59500000 +0
  C(ATOM    210  CB  PRO A  15)   4.96800000 +0 -22.76300000 +0   3.95600000 +0
  C(ATOM    211  CG  PRO A  15)   3.55300000 +0 -22.40300000 +0   4.46100000 +0
  C(ATOM    212  CD  PRO A  15)   2.74400000 +0 -22.53100000 +0   3.24900000 +0
  H(ATOM    213  HA  PRO A  15)   5.38380427 +1 -20.91826481 +1   2.81525742 +1
  H(ATOM    214 1HB  PRO A  15)   5.08286661 +1 -23.85245761 +1   3.81664784 +1
  H(ATOM    215 2HB  PRO A  15)   5.75569937 +1 -22.46273853 +1   4.66834817 +1
  H(ATOM    216 1HG  PRO A  15)   3.53650482 +1 -21.38554295 +1   4.90569252 +1
  H(ATOM    217 2HG  PRO A  15)   3.23353175 +1 -23.07444837 +1   5.28516255 +1
  H(ATOM    218 1HD  PRO A  15)   2.50800066 +1 -23.59340171 +1   2.97921111 +1
  H(ATOM    219 2HD  PRO A  15)   1.77637797 +1 -21.98027771 +1   3.29296728 +1
  N(ATOM    220  N   GLN A  16)   5.59800000 +0 -23.67400000 +0   0.92300000 +0
  C(ATOM    221  CA  GLN A  16)   6.45400000 +0 -24.38500000 +0  -0.02000000 +0
  C(ATOM    222  C   GLN A  16)   5.90500000 +0 -24.41200000 +0  -1.48200000 +0
  O(ATOM    223  O   GLN A  16)   6.38300000 +0 -25.17900000 +0  -2.31700000 +0
  C(ATOM    224  CB  GLN A  16)   6.71200000 +0 -25.81700000 +0   0.46600000 +0
  C(ATOM    225  CG  GLN A  16)   7.37300000 +0 -25.89600000 +0   1.88300000 +0
  C(ATOM    226  CD  GLN A  16)   7.72100000 +0 -27.32800000 +0   2.36800000 +0
  O(ATOM    227  OE1 GLN A  16)   7.01100000 +0 -28.28500000 +0   2.06600000 +0
  N(ATOM    228  NE2 GLN A  16)   8.79400000 +0 -27.45400000 +0   3.17200000 +0
  H(ATOM    229  H   GLN A  16)   4.66823537 +1 -24.09174641 +1   1.06650682 +1
  H(ATOM    230  HA  GLN A  16)   7.44764222 +1 -23.83706216 +1  -0.08748652 +1
  H(ATOM    231 1HB  GLN A  16)   5.76266332 +1 -26.39450720 +1   0.48678600 +1
  H(ATOM    232 2HB  GLN A  16)   7.35648856 +1 -26.34574028 +1  -0.26353050 +1
  H(ATOM    233 1HG  GLN A  16)   6.68182673 +1 -25.46198481 +1   2.63456228 +1
  H(ATOM    234 2HG  GLN A  16)   8.27986912 +1 -25.25955708 +1   1.89004687 +1
  H(ATOM    235 1HE2 GLN A  16)   9.07144156 +1 -28.34784618 +1   3.54933652 +1
  H(ATOM    236 2HE2 GLN A  16)   9.38891995 +1 -26.67892046 +1   3.42115643 +1
  N(ATOM    237  N   ARG A  17)   4.97000000 +0 -23.55000000 +0  -1.82100000 +0
  C(ATOM    238  CA  ARG A  17)   4.40800000 +0 -23.62000000 +0  -3.18200000 +0
  C(ATOM    239  C   ARG A  17)   3.59000000 +0 -22.40800000 +0  -3.47600000 +0
  O(ATOM    240  O   ARG A  17)   3.12800000 +0 -21.72800000 +0  -2.56600000 +0
  C(ATOM    241  CB  ARG A  17)   3.57500000 +0 -24.89200000 +0  -3.35400000 +0
  C(ATOM    242  CG  ARG A  17)   2.34800000 +0 -25.01000000 +0  -2.42300000 +0
  C(ATOM    243  CD  ARG A  17)   1.53500000 +0 -26.27100000 +0  -2.68200000 +0
  N(ATOM    244  NE  ARG A  17)   0.21100000 +0 -26.21100000 +0  -2.03300000 +0
  C(ATOM    245  CZ  ARG A  17)  -0.73000000 +0 -27.10400000 +0  -2.20700000 +0
  N(ATOM    246  NH1 ARG A  17)  -0.48500000 +0 -28.14800000 +0  -2.99900000 +0
  N(ATOM    247  NH2 ARG A  17)  -1.89700000 +0 -26.97500000 +0  -1.56600000 +0
  H(ATOM    248  H   ARG A  17)   4.53378907 +1 -22.87292463 +1  -1.18503746 +1
  H(ATOM    249  HA  ARG A  17)   5.28888280 +1 -23.68667283 +1  -3.90591804 +1
  H(ATOM    250 1HB  ARG A  17)   3.24613415 +1 -24.96124005 +1  -4.41181410 +1
  H(ATOM    251 2HB  ARG A  17)   4.24043490 +1 -25.77498928 +1  -3.18485181 +1
  H(ATOM    252 1HG  ARG A  17)   1.70858805 +1 -24.10866382 +1  -2.54577219 +1
  H(ATOM    253 2HG  ARG A  17)   2.68788352 +1 -24.98984176 +1  -1.36491243 +1
  H(ATOM    254 1HD  ARG A  17)   1.39736988 +1 -26.40523046 +1  -3.78589419 +1
  H(ATOM    255 2HD  ARG A  17)   2.08708056 +1 -27.16707363 +1  -2.30451118 +1
  H(ATOM    256  HE  ARG A  17)   0.00036197 +1 -25.35031797 +1  -1.51559757 +1
  H(ATOM    257 1HH1 ARG A  17)  -1.24877498 +1 -28.75325825 +1  -3.29247351 +1
  H(ATOM    258 2HH1 ARG A  17)   0.30911252 +1 -28.20665504 +1  -3.62454210 +1
  H(ATOM    259  HH2 ARG A  17)  -2.64227869 +1 -27.57607060 +1  -1.87898455 +1
  N(ATOM    260  N   VAL A  18)   3.39100000 +0 -22.14700000 +0  -4.75900000 +0
  C(ATOM    261  CA  VAL A  18)   2.68300000 +0 -21.02600000 +0  -5.24600000 +0
  C(ATOM    262  C   VAL A  18)   1.82400000 +0 -21.53100000 +0  -6.41200000 +0
  O(ATOM    263  O   VAL A  18)   2.22700000 +0 -22.45300000 +0  -7.12100000 +0
  C(ATOM    264  CB  VAL A  18)   3.60800000 +0 -19.89500000 +0  -5.72000000 +0
  C(ATOM    265  CG1 VAL A  18)   4.52300000 +0 -20.30500000 +0  -6.85800000 +0
  C(ATOM    266  CG2 VAL A  18)   2.78600000 +0 -18.67000000 +0  -6.14900000 +0
  H(ATOM    267  H   VAL A  18)   3.90152143 +1 -22.69567679 +1  -5.48531293 +1
  H(ATOM    268  HA  VAL A  18)   2.01450405 +1 -20.60423823 +1  -4.42174723 +1
  H(ATOM    269  HB  VAL A  18)   4.24192761 +1 -19.59934043 +1  -4.83969061 +1
  H(ATOM    270 1HG1 VAL A  18)   5.17361922 +1 -21.14821386 +1  -6.58563466 +1
  H(ATOM    271 2HG1 VAL A  18)   3.95710692 +1 -20.62183106 +1  -7.74624253 +1
  H(ATOM    272 3HG1 VAL A  18)   5.17642016 +1 -19.48081143 +1  -7.16669586 +1
  H(ATOM    273 1HG2 VAL A  18)   2.05076048 +1 -18.38540922 +1  -5.38394836 +1
  H(ATOM    274 2HG2 VAL A  18)   3.43269360 +1 -17.80367517 +1  -6.32050501 +1
  H(ATOM    275 3HG2 VAL A  18)   2.23123472 +1 -18.84884989 +1  -7.07939800 +1
  N(ATOM    276  N   LEU A  19)   0.62800000 +0 -20.98400000 +0  -6.47900000 +0
  C(ATOM    277  CA  LEU A  19)  -0.36600000 +0 -21.37400000 +0  -7.43300000 +0
  C(ATOM    278  C   LEU A  19)  -0.29900000 +0 -20.42000000 +0  -8.62700000 +0
  O(ATOM    279  O   LEU A  19)  -0.33400000 +0 -19.18500000 +0  -8.45400000 +0
  C(ATOM    280  CB  LEU A  19)  -1.74800000 +0 -21.30000000 +0  -6.82400000 +0
  C(ATOM    281  CG  LEU A  19)  -2.82800000 +0 -21.86800000 +0  -7.75200000 +0
  C(ATOM    282  CD1 LEU A  19)  -2.63500000 +0 -23.35500000 +0  -8.01700000 +0
  C(ATOM    283  CD2 LEU A  19)  -4.25700000 +0 -21.55300000 +0  -7.14700000 +0
  H(ATOM    284  H   LEU A  19)   0.35470344 +1 -20.21505873 +1  -5.83953415 +1
  H(ATOM    285  HA  LEU A  19)  -0.15411600 +1 -22.44074453 +1  -7.77635360 +1
  H(ATOM    286 1HB  LEU A  19)  -1.76432686 +1 -21.85479176 +1  -5.85580748 +1
  H(ATOM    287 2HB  LEU A  19)  -1.99814050 +1 -20.24707383 +1  -6.56260144 +1
  H(ATOM    288  HG  LEU A  19)  -2.78116518 +1 -21.32611527 +1  -8.73081630 +1
  H(ATOM    289 1HD1 LEU A  19)  -1.79998560 +1 -23.53365591 +1  -8.70551898 +1
  H(ATOM    290 2HD1 LEU A  19)  -2.41475044 +1 -23.90860433 +1  -7.09250096 +1
  H(ATOM    291 3HD1 LEU A  19)  -3.52840131 +1 -23.80641715 +1  -8.45854051 +1
  H(ATOM    292 1HD2 LEU A  19)  -4.35464436 +1 -20.48757930 +1  -6.93017872 +1
  H(ATOM    293 2HD2 LEU A  19)  -5.03707140 +1 -21.83388428 +1  -7.85606220 +1
  H(ATOM    294 3HD2 LEU A  19)  -4.40114302 +1 -22.10600582 +1  -6.21664283 +1
  N(ATOM    295  N   LEU A  20)  -0.06000000 +0 -20.98700000 +0  -9.82300000 +0
  C(ATOM    296  CA  LEU A  20)  -0.11700000 +0 -20.20600000 +0 -11.01200000 +0
  C(ATOM    297  C   LEU A  20)  -1.13600000 +0 -20.84300000 +0 -11.96600000 +0
  O(ATOM    298  O   LEU A  20)  -1.49200000 +0 -21.97900000 +0 -11.85400000 +0
  C(ATOM    299  CB  LEU A  20)   1.27300000 +0 -20.07500000 +0 -11.67000000 +0
  C(ATOM    300  CG  LEU A  20)   2.38400000 +0 -19.50500000 +0 -10.76200000 +0
  C(ATOM    301  CD1 LEU A  20)   3.83100000 +0 -19.61500000 +0 -11.46400000 +0
  C(ATOM    302  CD2 LEU A  20)   2.16600000 +0 -18.01900000 +0 -10.46200000 +0
  H(ATOM    303  H   LEU A  20)  -0.08306029 +1 -22.01107309 +1  -9.97758988 +1
  H(ATOM    304  HA  LEU A  20)  -0.46156184 +1 -19.14563119 +1 -10.76902976 +1
  H(ATOM    305 1HB  LEU A  20)   1.60039033 +1 -21.07522981 +1 -12.03004965 +1
  H(ATOM    306 2HB  LEU A  20)   1.18055256 +1 -19.43520478 +1 -12.57108413 +1
  H(ATOM    307  HG  LEU A  20)   2.42633083 +1 -20.08620147 +1  -9.81823905 +1
  H(ATOM    308 1HD1 LEU A  20)   4.05270432 +1 -20.66041236 +1 -11.68393121 +1
  H(ATOM    309 2HD1 LEU A  20)   3.84026989 +1 -19.04462174 +1 -12.39161166 +1
  H(ATOM    310 3HD1 LEU A  20)   4.59007140 +1 -19.22080294 +1 -10.79181954 +1
  H(ATOM    311 1HD2 LEU A  20)   1.24771833 +1 -17.86985829 +1  -9.87479469 +1
  H(ATOM    312 2HD2 LEU A  20)   2.99023253 +1 -17.60404551 +1  -9.87568764 +1
  H(ATOM    313 3HD2 LEU A  20)   2.07418209 +1 -17.42870995 +1 -11.37863385 +1
  N(ATOM    314  N   GLY A  21)  -1.62100000 +0 -20.03900000 +0 -12.88100000 +0
  C(ATOM    315  CA  GLY A  21)  -2.45900000 +0 -20.48800000 +0 -13.99400000 +0
  C(ATOM    316  C   GLY A  21)  -1.82900000 +0 -20.17700000 +0 -15.34700000 +0
  O(ATOM    317  O   GLY A  21)  -1.17600000 +0 -19.16500000 +0 -15.54300000 +0
  H(ATOM    318  H   GLY A  21)  -1.33959399 +1 -19.04929548 +1 -12.96516288 +1
  H(ATOM    319 1HA  GLY A  21)  -3.44625303 +1 -19.96216207 +1 -13.93774457 +1
  H(ATOM    320 2HA  GLY A  21)  -2.67760533 +1 -21.58488458 +1 -13.88688791 +1
  N(ATOM    321  N   MET A  22)  -1.97400000 +0 -21.12100000 +0 -16.26000000 +0
  C(ATOM    322  CA  MET A  22)  -1.57800000 +0 -20.95200000 +0 -17.61600000 +0
  C(ATOM    323  C   MET A  22)  -2.70900000 +0 -20.23000000 +0 -18.27100000 +0
  O(ATOM    324  O   MET A  22)  -3.81900000 +0 -20.75900000 +0 -18.30100000 +0
  C(ATOM    325  CB  MET A  22)  -1.34700000 +0 -22.29500000 +0 -18.28700000 +0
  C(ATOM    326  CG  MET A  22)  -1.12200000 +0 -22.24500000 +0 -19.76500000 +0
  S(ATOM    327  SD  MET A  22)   0.10500000 +0 -21.09500000 +0 -20.30800000 +0
  C(ATOM    328  CE  MET A  22)   1.61000000 +0 -21.80500000 +0 -19.58700000 +0
  H(ATOM    329  H   MET A  22)  -2.47883064 +1 -22.00075315 +1 -16.04912464 +1
  H(ATOM    330  HA  MET A  22)  -0.61456450 +1 -20.34035853 +1 -17.65381025 +1
  H(ATOM    331 1HB  MET A  22)  -2.21204276 +1 -22.97346659 +1 -18.07252761 +1
  H(ATOM    332 2HB  MET A  22)  -0.48749701 +1 -22.79995460 +1 -17.77261989 +1
  H(ATOM    333 1HG  MET A  22)  -0.89559804 +1 -23.26437438 +1 -20.15242205 +1
  H(ATOM    334 2HG  MET A  22)  -2.06782295 +1 -21.95086468 +1 -20.28589665 +1
  H(ATOM    335 1HE  MET A  22)   2.47778262 +1 -21.29719561 +1 -20.03436206 +1
  H(ATOM    336 2HE  MET A  22)   1.65429586 +1 -21.64218824 +1 -18.50206338 +1
  H(ATOM    337 3HE  MET A  22)   1.71302097 +1 -22.87648979 +1 -19.78269751 +1
  N(ATOM    338  N   LYS A  23)  -2.42500000 +0 -19.02500000 +0 -18.80600000 +0
  C(ATOM    339  CA  LYS A  23)  -3.44700000 +0 -18.20000000 +0 -19.42300000 +0
  C(ATOM    340  C   LYS A  23)  -3.74900000 +0 -18.80600000 +0 -20.81500000 +0
  O(ATOM    341  O   LYS A  23)  -2.86400000 +0 -18.99000000 +0 -21.64100000 +0
  C(ATOM    342  CB  LYS A  23)  -2.93900000 +0 -16.77700000 +0 -19.58100000 +0
  C(ATOM    343  CG  LYS A  23)  -3.96500000 +0 -15.83300000 +0 -20.12500000 +0
  C(ATOM    344  CD  LYS A  23)  -5.03500000 +0 -15.53500000 +0 -19.04300000 +0
  C(ATOM    345  CE  LYS A  23)  -6.06000000 +0 -14.44600000 +0 -19.41000000 +0
  N(ATOM    346  NZ  LYS A  23)  -5.39900000 +0 -13.20300000 +0 -19.81400000 +0
  H(ATOM    347  H   LYS A  23)  -1.49481543 +1 -18.59795731 +1 -18.67410356 +1
  H(ATOM    348  HA  LYS A  23)  -4.38714411 +1 -18.22021575 +1 -18.79057607 +1
  H(ATOM    349 1HB  LYS A  23)  -2.02592708 +1 -16.76947922 +1 -20.22758533 +1
  H(ATOM    350 2HB  LYS A  23)  -2.56257974 +1 -16.40986947 +1 -18.59159462 +1
  H(ATOM    351 1HG  LYS A  23)  -3.47555857 +1 -14.89002656 +1 -20.44800895 +1
  H(ATOM    352 2HG  LYS A  23)  -4.46007026 +1 -16.21384021 +1 -21.04122116 +1
  H(ATOM    353 1HD  LYS A  23)  -4.52225775 +1 -15.24510884 +1 -18.09703931 +1
  H(ATOM    354 2HD  LYS A  23)  -5.59026205 +1 -16.46767486 +1 -18.80619345 +1
  H(ATOM    355 1HE  LYS A  23)  -6.72523328 +1 -14.79817861 +1 -20.24388420 +1
  H(ATOM    356 2HE  LYS A  23)  -6.72886997 +1 -14.24856833 +1 -18.53376360 +1
  H(ATOM    357 1HZ  LYS A  23)  -4.94144238 +1 -13.27769974 +1 -20.74120015 +1
  H(ATOM    358 2HZ  LYS A  23)  -6.07485136 +1 -12.41139573 +1 -19.85130322 +1
  H(ATOM    359 3HZ  LYS A  23)  -4.66216788 +1 -12.94386596 +1 -19.12595212 +1
  N(ATOM    360  N   LYS A  24)  -5.01600000 +0 -19.09400000 +0 -21.06000000 +0
  C(ATOM    361  CA  LYS A  24)  -5.42400000 +0 -19.90700000 +0 -22.15900000 +0
  C(ATOM    362  C   LYS A  24)  -5.87700000 +0 -19.10300000 +0 -23.39300000 +0
  O(ATOM    363  O   LYS A  24)  -5.91300000 +0 -19.62800000 +0 -24.48400000 +0
  C(ATOM    364  CB  LYS A  24)  -6.58100000 +0 -20.77200000 +0 -21.68300000 +0
  C(ATOM    365  CG  LYS A  24)  -6.14800000 +0 -21.89500000 +0 -20.81400000 +0
  C(ATOM    366  CD  LYS A  24)  -7.35200000 +0 -22.57800000 +0 -20.04900000 +0
  C(ATOM    367  CE  LYS A  24)  -8.35000000 +0 -23.14800000 +0 -20.99100000 +0
  N(ATOM    368  NZ  LYS A  24)  -9.31700000 +0 -23.97100000 +0 -20.28800000 +0
  H(ATOM    369  H   LYS A  24)  -5.75700629 +1 -18.91229152 +1 -20.35639456 +1
  H(ATOM    370  HA  LYS A  24)  -4.56699848 +1 -20.56025600 +1 -22.51291734 +1
  H(ATOM    371 1HB  LYS A  24)  -7.13674564 +1 -21.16353941 +1 -22.57274390 +1
  H(ATOM    372 2HB  LYS A  24)  -7.35314433 +1 -20.14583082 +1 -21.16941561 +1
  H(ATOM    373 1HG  LYS A  24)  -5.61833914 +1 -22.67267390 +1 -21.39978456 +1
  H(ATOM    374 2HG  LYS A  24)  -5.42662504 +1 -21.54618711 +1 -20.03762354 +1
  H(ATOM    375 1HD  LYS A  24)  -7.81148679 +1 -21.82356336 +1 -19.37499095 +1
  H(ATOM    376 2HD  LYS A  24)  -6.92640996 +1 -23.35177239 +1 -19.37506990 +1
  H(ATOM    377 1HE  LYS A  24)  -8.87993092 +1 -22.32479934 +1 -21.55117898 +1
  H(ATOM    378 2HE  LYS A  24)  -7.85037664 +1 -23.75086304 +1 -21.80050712 +1
  H(ATOM    379 1HZ  LYS A  24) -10.03579059 +1 -24.36312544 +1 -20.92717762 +1
  H(ATOM    380 2HZ  LYS A  24)  -8.83882367 +1 -24.79040990 +1 -19.79939783 +1
  H(ATOM    381 3HZ  LYS A  24)  -9.82665302 +1 -23.41465049 +1 -19.56983027 +1
  N(ATOM    382  N   ARG A  25)  -6.17900000 +0 -17.82400000 +0 -23.19300000 +0
  C(ATOM    383  CA  ARG A  25)  -6.65800000 +0 -16.95200000 +0 -24.22600000 +0
  C(ATOM    384  C   ARG A  25)  -6.42700000 +0 -15.54200000 +0 -23.76600000 +0
  O(ATOM    385  O   ARG A  25)  -6.17300000 +0 -15.30500000 +0 -22.58900000 +0
  C(ATOM    386  CB  ARG A  25)  -8.17100000 +0 -17.18100000 +0 -24.45700000 +0
  C(ATOM    387  CG  ARG A  25)  -9.02000000 +0 -16.89800000 +0 -23.23300000 +0
  C(ATOM    388  CD  ARG A  25) -10.56100000 +0 -16.95100000 +0 -23.45500000 +0
  N(ATOM    389  NE  ARG A  25) -11.00900000 +0 -18.30500000 +0 -23.81800000 +0
  C(ATOM    390  CZ  ARG A  25) -12.28100000 +0 -18.70800000 +0 -23.88800000 +0
  N(ATOM    391  NH1 ARG A  25) -13.25600000 +0 -17.86000000 +0 -23.59300000 +0
  N(ATOM    392  NH2 ARG A  25) -12.57000000 +0 -19.96800000 +0 -24.25400000 +0
  H(ATOM    393  H   ARG A  25)  -6.14584898 +1 -17.39805334 +1 -22.25719272 +1
  H(ATOM    394  HA  ARG A  25)  -6.11103294 +1 -17.16305784 +1 -25.19718086 +1
  H(ATOM    395 1HB  ARG A  25)  -8.32255602 +1 -18.22872978 +1 -24.79953404 +1
  H(ATOM    396 2HB  ARG A  25)  -8.50914491 +1 -16.55587742 +1 -25.31184336 +1
  H(ATOM    397 1HG  ARG A  25)  -8.75780434 +1 -17.60478125 +1 -22.41793213 +1
  H(ATOM    398 2HG  ARG A  25)  -8.78880830 +1 -15.88466480 +1 -22.83066169 +1
  H(ATOM    399 1HD  ARG A  25) -11.06111024 +1 -16.59962974 +1 -22.52260304 +1
  H(ATOM    400 2HD  ARG A  25) -10.84621877 +1 -16.24224821 +1 -24.26777614 +1
  H(ATOM    401  HE  ARG A  25) -10.29220582 +1 -19.05305695 +1 -23.74007884 +1
  H(ATOM    402 1HH1 ARG A  25) -14.22461611 +1 -18.05582412 +1 -23.81753685 +1
  H(ATOM    403 2HH1 ARG A  25) -13.09715347 +1 -16.87304644 +1 -23.42131819 +1
  H(ATOM    404  HH2 ARG A  25) -13.55087556 +1 -20.21599566 +1 -24.27042212 +1
  N(ATOM    405  N   GLY A  26)  -6.54000000 +0 -14.58100000 +0 -24.67600000 +0
  C(ATOM    406  CA  GLY A  26)  -6.44800000 +0 -13.15800000 +0 -24.31900000 +0
  C(ATOM    407  C   GLY A  26)  -5.02800000 +0 -12.68500000 +0 -24.01400000 +0
  O(ATOM    408  O   GLY A  26)  -4.05400000 +0 -13.33000000 +0 -24.40600000 +0
  H(ATOM    409  H   GLY A  26)  -6.72690957 +1 -14.76844875 +1 -25.67115693 +1
  H(ATOM    410 1HA  GLY A  26)  -7.12394284 +1 -12.96062593 +1 -23.44307449 +1
  H(ATOM    411 2HA  GLY A  26)  -6.85625265 +1 -12.54516378 +1 -25.16464616 +1
  N(ATOM    412  N   PHE A  27)  -4.95400000 +0 -11.58900000 +0 -23.26300000 +0
  C(ATOM    413  CA  PHE A  27)  -3.71700000 +0 -10.88500000 +0 -22.96700000 +0
  C(ATOM    414  C   PHE A  27)  -2.77700000 +0 -11.80500000 +0 -22.16700000 +0
  O(ATOM    415  O   PHE A  27)  -3.22800000 +0 -12.41500000 +0 -21.19900000 +0
  C(ATOM    416  CB  PHE A  27)  -4.03100000 +0  -9.68300000 +0 -22.11600000 +0
  C(ATOM    417  CG  PHE A  27)  -2.86500000 +0  -8.74500000 +0 -21.98100000 +0
  C(ATOM    418  CD1 PHE A  27)  -2.35200000 +0  -8.13100000 +0 -23.11300000 +0
  C(ATOM    419  CD2 PHE A  27)  -2.24400000 +0  -8.54100000 +0 -20.77500000 +0
  C(ATOM    420  CE1 PHE A  27)  -1.23700000 +0  -7.24100000 +0 -23.01900000 +0
  C(ATOM    421  CE2 PHE A  27)  -1.15000000 +0  -7.64300000 +0 -20.72300000 +0
  C(ATOM    422  CZ  PHE A  27)  -0.67700000 +0  -7.03400000 +0 -21.86500000 +0
  H(ATOM    423  H   PHE A  27)  -5.79848982 +1 -11.20401892 +1 -22.80356744 +1
  H(ATOM    424  HA  PHE A  27)  -3.23367737 +1 -10.57637965 +1 -23.94227011 +1
  H(ATOM    425 1HB  PHE A  27)  -4.40108741 +1  -9.99261534 +1 -21.10982527 +1
  H(ATOM    426 2HB  PHE A  27)  -4.89359313 +1  -9.10826859 +1 -22.54482778 +1
  H(ATOM    427  HD1 PHE A  27)  -2.81168453 +1  -8.28389946 +1 -24.08679710 +1
  H(ATOM    428  HD2 PHE A  27)  -2.59228656 +1  -9.00957545 +1 -19.85936371 +1
  H(ATOM    429  HE1 PHE A  27)  -0.89878731 +1  -6.76736011 +1 -23.94805233 +1
  H(ATOM    430  HE2 PHE A  27)  -0.68494166 +1  -7.44518663 +1 -19.75144732 +1
  H(ATOM    431  HZ  PHE A  27)   0.18581130 +1  -6.34910955 +1 -21.75596765 +1
  N(ATOM    432  N   GLY A  28)  -1.52400000 +0 -11.98400000 +0 -22.59300000 +0
  C(ATOM    433  CA  GLY A  28)  -0.62200000 +0 -12.88700000 +0 -21.83900000 +0
  C(ATOM    434  C   GLY A  28)  -0.88500000 +0 -14.41100000 +0 -22.06500000 +0
  O(ATOM    435  O   GLY A  28)  -0.33800000 +0 -15.21800000 +0 -21.31100000 +0
  H(ATOM    436  H   GLY A  28)  -1.13818467 +1 -11.55988007 +1 -23.42636754 +1
  H(ATOM    437 1HA  GLY A  28)  -0.72727212 +1 -12.70489550 +1 -20.73939355 +1
  H(ATOM    438 2HA  GLY A  28)   0.43336781 +1 -12.67365700 +1 -22.12199360 +1
  N(ATOM    439  N   ALA A  29)  -1.64500000 +0 -14.78800000 +0 -23.10400000 +0
  C(ATOM    440  CA  ALA A  29)  -1.98300000 +0 -16.21900000 +0 -23.36500000 +0
  C(ATOM    441  C   ALA A  29)  -0.67300000 +0 -16.90700000 +0 -23.53400000 +0
  O(ATOM    442  O   ALA A  29)   0.21200000 +0 -16.38600000 +0 -24.22900000 +0
  C(ATOM    443  CB  ALA A  29)  -2.88000000 +0 -16.43900000 +0 -24.63200000 +0
  H(ATOM    444  H   ALA A  29)  -2.19646767 +1 -14.12565155 +1 -23.65174529 +1
  H(ATOM    445  HA  ALA A  29)  -2.56738740 +1 -16.59818129 +1 -22.47482535 +1
  H(ATOM    446 1HB  ALA A  29)  -3.73767222 +1 -15.75158203 +1 -24.61279990 +1
  H(ATOM    447 2HB  ALA A  29)  -2.32892364 +1 -16.23762623 +1 -25.55804975 +1
  H(ATOM    448 3HB  ALA A  29)  -3.26215807 +1 -17.46256528 +1 -24.65701242 +1
  N(ATOM    449  N   GLY A  30)  -0.52900000 +0 -18.04000000 +0 -22.86800000 +0
  C(ATOM    450  CA  GLY A  30)   0.59800000 +0 -18.91500000 +0 -23.01300000 +0
  C(ATOM    451  C   GLY A  30)   1.66200000 +0 -18.69900000 +0 -21.94700000 +0
  O(ATOM    452  O   GLY A  30)   2.64700000 +0 -19.44000000 +0 -21.97900000 +0
  H(ATOM    453  H   GLY A  30)  -1.26752849 +1 -18.38213554 +1 -22.22360917 +1
  H(ATOM    454 1HA  GLY A  30)   1.08992985 +1 -18.78742512 +1 -24.01861138 +1
  H(ATOM    455 2HA  GLY A  30)   0.27406812 +1 -19.98995678 +1 -22.97998005 +1
  N(ATOM    456  N   ARG A  31)   1.43300000 +0 -17.77200000 +0 -20.98200000 +0
  C(ATOM    457  CA  ARG A  31)   2.30400000 +0 -17.54800000 +0 -19.79400000 +0
  C(ATOM    458  C   ARG A  31)   1.58900000 +0 -17.89900000 +0 -18.52100000 +0
  O(ATOM    459  O   ARG A  31)   0.34400000 +0 -17.64700000 +0 -18.38100000 +0
  C(ATOM    460  CB  ARG A  31)   2.76300000 +0 -16.10800000 +0 -19.76600000 +0
  C(ATOM    461  CG  ARG A  31)   3.74100000 +0 -15.84700000 +0 -20.93000000 +0
  C(ATOM    462  CD  ARG A  31)   3.85700000 +0 -14.38800000 +0 -21.23600000 +0
  N(ATOM    463  NE  ARG A  31)   5.08800000 +0 -14.20300000 +0 -22.00000000 +0
  C(ATOM    464  CZ  ARG A  31)   5.46100000 +0 -13.06300000 +0 -22.56300000 +0
  N(ATOM    465  NH1 ARG A  31)   4.70900000 +0 -12.01500000 +0 -22.44900000 +0
  N(ATOM    466  NH2 ARG A  31)   6.58800000 +0 -13.00900000 +0 -23.24300000 +0
  H(ATOM    467  H   ARG A  31)   0.65501288 +1 -17.11185477 +1 -21.04575138 +1
  H(ATOM    468  HA  ARG A  31)   3.20967814 +1 -18.23043678 +1 -19.92513528 +1
  H(ATOM    469 1HB  ARG A  31)   1.88423267 +1 -15.42078233 +1 -19.82772982 +1
  H(ATOM    470 2HB  ARG A  31)   3.23442147 +1 -15.85817751 +1 -18.79343025 +1
  H(ATOM    471 1HG  ARG A  31)   3.40569780 +1 -16.40509508 +1 -21.83430565 +1
  H(ATOM    472 2HG  ARG A  31)   4.72543063 +1 -16.29560470 +1 -20.65971949 +1
  H(ATOM    473 1HD  ARG A  31)   2.96823430 +1 -14.03081520 +1 -21.81495337 +1
  H(ATOM    474 2HD  ARG A  31)   3.89379458 +1 -13.77497541 +1 -20.29613568 +1
  H(ATOM    475  HE  ARG A  31)   5.61238154 +1 -15.08556481 +1 -22.20579649 +1
  H(ATOM    476 1HH1 ARG A  31)   5.00907080 +1 -11.10486767 +1 -22.83481122 +1
  H(ATOM    477 2HH1 ARG A  31)   3.93102715 +1 -11.93776689 +1 -21.80157971 +1
  H(ATOM    478 1HH2 ARG A  31)   6.79294386 +1 -12.22911167 +1 -23.89866216 +1
  H(ATOM    479 2HH2 ARG A  31)   7.06840965 +1 -13.87217941 +1 -23.50151669 +1
  N(ATOM    480  N   TRP A  32)   2.31900000 +0 -18.59400000 +0 -17.63700000 +0
  C(ATOM    481  CA  TRP A  32)   1.85300000 +0 -18.81500000 +0 -16.29600000 +0
  C(ATOM    482  C   TRP A  32)   1.72000000 +0 -17.45300000 +0 -15.59000000 +0
  O(ATOM    483  O   TRP A  32)   2.54200000 +0 -16.56600000 +0 -15.79300000 +0
  C(ATOM    484  CB  TRP A  32)   2.86500000 +0 -19.69100000 +0 -15.52600000 +0
  C(ATOM    485  CG  TRP A  32)   2.99000000 +0 -21.06000000 +0 -16.07000000 +0
  C(ATOM    486  CD1 TRP A  32)   3.93400000 +0 -21.54400000 +0 -16.91100000 +0
  N(ATOM    487  NE1 TRP A  32)   3.70600000 +0 -22.87000000 +0 -17.15900000 +0
  C(ATOM    488  CD2 TRP A  32)   2.08600000 +0 -22.13000000 +0 -15.82100000 +0
  C(ATOM    489  CE2 TRP A  32)   2.53900000 +0 -23.23100000 +0 -16.54500000 +0
  C(ATOM    490  CE3 TRP A  32)   0.91000000 +0 -22.24800000 +0 -15.06100000 +0
  C(ATOM    491  CZ2 TRP A  32)   1.88400000 +0 -24.45400000 +0 -16.49300000 +0
  C(ATOM    492  CZ3 TRP A  32)   0.25500000 +0 -23.44900000 +0 -15.06500000 +0
  C(ATOM    493  CH2 TRP A  32)   0.73800000 +0 -24.52000000 +0 -15.78900000 +0
  H(ATOM    494  H   TRP A  32)   3.33048841 +1 -18.70680714 +1 -17.78364681 +1
  H(ATOM    495  HA  TRP A  32)   0.84436487 +1 -19.33205003 +1 -16.33278193 +1
  H(ATOM    496 1HB  TRP A  32)   2.55391188 +1 -19.74274906 +1 -14.45608785 +1
  H(ATOM    497 2HB  TRP A  32)   3.85849801 +1 -19.18773268 +1 -15.51006858 +1
  H(ATOM    498  HD1 TRP A  32)   4.78509900 +1 -21.02900584 +1 -17.33887552 +1
  H(ATOM    499  HE1 TRP A  32)   4.32231522 +1 -23.46778838 +1 -17.68808402 +1
  H(ATOM    500  HE3 TRP A  32)   0.54717301 +1 -21.39503878 +1 -14.49216166 +1
  H(ATOM    501  HZ2 TRP A  32)   2.28727181 +1 -25.31408743 +1 -17.03343175 +1
  H(ATOM    502  HZ3 TRP A  32)  -0.67947877 +1 -23.56290210 +1 -14.50113680 +1
  H(ATOM    503  HH2 TRP A  32)   0.16061080 +1 -25.45611247 +1 -15.77339708 +1
  N(ATOM    504  N   ASN A  33)   0.78100000 +0 -17.33200000 +0 -14.67300000 +0
  C(ATOM    505  CA  ASN A  33)   0.62600000 +0 -16.08000000 +0 -13.97300000 +0
  C(ATOM    506  C   ASN A  33)  -0.25900000 +0 -16.29300000 +0 -12.80700000 +0
  O(ATOM    507  O   ASN A  33)  -0.94000000 +0 -17.32400000 +0 -12.67100000 +0
  C(ATOM    508  CB  ASN A  33)  -0.01300000 +0 -15.00700000 +0 -14.93700000 +0
  C(ATOM    509  CG  ASN A  33)   0.37000000 +0 -13.56700000 +0 -14.56500000 +0
  O(ATOM    510  OD1 ASN A  33)   0.85100000 +0 -13.29600000 +0 -13.45000000 +0
  N(ATOM    511  ND2 ASN A  33)   0.12200000 +0 -12.63800000 +0 -15.48500000 +0
  H(ATOM    512  H   ASN A  33)  -0.04310935 +1 -17.96529203 +1 -14.64464750 +1
  H(ATOM    513  HA  ASN A  33)   1.64646161 +1 -15.69348259 +1 -13.66226596 +1
  H(ATOM    514 1HB  ASN A  33)  -1.12008346 +1 -15.09916503 +1 -14.93488528 +1
  H(ATOM    515 2HB  ASN A  33)   0.29597133 +1 -15.22624012 +1 -15.99094364 +1
  H(ATOM    516 1HD2 ASN A  33)   0.20908126 +1 -11.65687037 +1 -15.26219784 +1
  H(ATOM    517 2HD2 ASN A  33)  -0.25163631 +1 -12.86830574 +1 -16.39664632 +1
  N(ATOM    518  N   GLY A  34)  -0.31700000 +0 -15.27300000 +0 -11.97300000 +0
  C(ATOM    519  CA  GLY A  34)  -1.32500000 +0 -15.19400000 +0 -10.96100000 +0
  C(ATOM    520  C   GLY A  34)  -2.65100000 +0 -14.88000000 +0 -11.58500000 +0
  O(ATOM    521  O   GLY A  34)  -2.76100000 +0 -14.72100000 +0 -12.80600000 +0
  H(ATOM    522  H   GLY A  34)   0.14738190 +1 -14.37197720 +1 -12.22505816 +1
  H(ATOM    523 1HA  GLY A  34)  -1.04612555 +1 -14.43055650 +1 -10.18670408 +1
  H(ATOM    524 2HA  GLY A  34)  -1.39772731 +1 -16.17269030 +1 -10.40503850 +1
  N(ATOM    525  N   PHE A  35)  -3.67400000 +0 -14.75800000 +0 -10.76400000 +0
  C(ATOM    526  CA  PHE A  35)  -5.03300000 +0 -14.59200000 +0 -11.29200000 +0
  C(ATOM    527  C   PHE A  35)  -5.40600000 +0 -13.14100000 +0 -11.14900000 +0
  O(ATOM    528  O   PHE A  35)  -5.00600000 +0 -12.49200000 +0 -10.20900000 +0
  C(ATOM    529  CB  PHE A  35)  -5.96600000 +0 -15.46500000 +0 -10.46000000 +0
  C(ATOM    530  CG  PHE A  35)  -5.56200000 +0 -16.87000000 +0 -10.46200000 +0
  C(ATOM    531  CD1 PHE A  35)  -5.84300000 +0 -17.64800000 +0 -11.54200000 +0
  C(ATOM    532  CD2 PHE A  35)  -4.81900000 +0 -17.40800000 +0  -9.40300000 +0
  C(ATOM    533  CE1 PHE A  35)  -5.38200000 +0 -18.97000000 +0 -11.59700000 +0
  C(ATOM    534  CE2 PHE A  35)  -4.36900000 +0 -18.70900000 +0  -9.43900000 +0
  C(ATOM    535  CZ  PHE A  35)  -4.65300000 +0 -19.48700000 +0 -10.56600000 +0
  H(ATOM    536  H   PHE A  35)  -3.56837033 +1 -14.70377730 +1  -9.74358563 +1
  H(ATOM    537  HA  PHE A  35)  -5.06591093 +1 -14.92644179 +1 -12.37729310 +1
  H(ATOM    538 1HB  PHE A  35)  -7.00610959 +1 -15.35293582 +1 -10.87016168 +1
  H(ATOM    539 2HB  PHE A  35)  -6.04200160 +1 -15.05878524 +1  -9.42282947 +1
  H(ATOM    540  HD1 PHE A  35)  -6.40928836 +1 -17.24045941 +1 -12.38404368 +1
  H(ATOM    541  HD2 PHE A  35)  -4.58659131 +1 -16.78213998 +1  -8.53797425 +1
  H(ATOM    542  HE1 PHE A  35)  -5.61160535 +1 -19.57762244 +1 -12.47436110 +1
  H(ATOM    543  HE2 PHE A  35)  -3.77971785 +1 -19.11313513 +1  -8.61537453 +1
  H(ATOM    544  HZ  PHE A  35)  -4.27861759 +1 -20.51219930 +1 -10.61002556 +1
  N(ATOM    545  N   GLY A  36)  -6.19500000 +0 -12.62500000 +0 -12.07500000 +0
  C(ATOM    546  CA  GLY A  36)  -6.64600000 +0 -11.22700000 +0 -11.99000000 +0
  C(ATOM    547  C   GLY A  36)  -7.21000000 +0 -10.73300000 +0 -13.30700000 +0
  O(ATOM    548  O   GLY A  36)  -7.54100000 +0 -11.54700000 +0 -14.21900000 +0
  H(ATOM    549  H   GLY A  36)  -6.58214591 +1 -13.15277724 +1 -12.88011237 +1
  H(ATOM    550 1HA  GLY A  36)  -5.77763834 +1 -10.58701490 +1 -11.66800488 +1
  H(ATOM    551 2HA  GLY A  36)  -7.41848262 +1 -11.13750002 +1 -11.18651937 +1
  N(ATOM    552  N   GLY A  37)  -7.36900000 +0  -9.42100000 +0 -13.39700000 +0
  C(ATOM    553  CA  GLY A  37)  -8.06000000 +0  -8.82900000 +0 -14.53300000 +0
  C(ATOM    554  C   GLY A  37)  -8.26000000 +0  -7.34800000 +0 -14.26600000 +0
  O(ATOM    555  O   GLY A  37)  -7.69000000 +0  -6.79400000 +0 -13.33900000 +0
  H(ATOM    556  H   GLY A  37)  -7.10466931 +1  -8.77291673 +1 -12.64823052 +1
  H(ATOM    557 1HA  GLY A  37)  -9.02563714 +1  -9.36326528 +1 -14.74037636 +1
  H(ATOM    558 2HA  GLY A  37)  -7.45617492 +1  -8.97510652 +1 -15.47389591 +1
  N(ATOM    559  N   LYS A  38)  -9.10900000 +0  -6.76200000 +0 -15.09300000 +0
  C(ATOM    560  CA  LYS A  38)  -9.51100000 +0  -5.39500000 +0 -14.97100000 +0
  C(ATOM    561  C   LYS A  38) -10.38500000 +0  -5.24100000 +0 -13.74300000 +0
  O(ATOM    562  O   LYS A  38) -11.19300000 +0  -6.07700000 +0 -13.42200000 +0
  C(ATOM    563  CB  LYS A  38) -10.33900000 +0  -4.96800000 +0 -16.23000000 +0
  C(ATOM    564  CG  LYS A  38)  -9.54400000 +0  -5.03000000 +0 -17.55600000 +0
  C(ATOM    565  CD  LYS A  38) -10.40700000 +0  -4.57800000 +0 -18.76700000 +0
  C(ATOM    566  CE  LYS A  38)  -9.48200000 +0  -4.12300000 +0 -19.89600000 +0
  N(ATOM    567  NZ  LYS A  38) -10.18900000 +0  -3.95700000 +0 -21.20700000 +0
  H(ATOM    568  H   LYS A  38)  -9.59678720 +1  -7.31744549 +1 -15.82549856 +1
  H(ATOM    569  HA  LYS A  38)  -8.59193199 +1  -4.73396783 +1 -14.90746930 +1
  H(ATOM    570 1HB  LYS A  38) -10.69701539 +1  -3.93203247 +1 -16.07214401 +1
  H(ATOM    571 2HB  LYS A  38) -11.24566104 +1  -5.60117714 +1 -16.31586876 +1
  H(ATOM    572 1HG  LYS A  38)  -8.64625163 +1  -4.38739417 +1 -17.47323148 +1
  H(ATOM    573 2HG  LYS A  38)  -9.17446975 +1  -6.05600496 +1 -17.73826879 +1
  H(ATOM    574 1HD  LYS A  38) -11.08797553 +1  -3.75882299 +1 -18.47638809 +1
  H(ATOM    575 2HD  LYS A  38) -11.05444724 +1  -5.40889547 +1 -19.09884716 +1
  H(ATOM    576 1HE  LYS A  38)  -8.96515124 +1  -3.18294571 +1 -19.59651100 +1
  H(ATOM    577 2HE  LYS A  38)  -8.67900935 +1  -4.88022531 +1 -20.05593334 +1
  H(ATOM    578 1HZ  LYS A  38) -10.91055672 +1  -3.24916356 +1 -21.09088313 +1
  H(ATOM    579 2HZ  LYS A  38)  -9.53509606 +1  -3.59650881 +1 -21.89530559 +1
  N(ATOM    580  N   VAL A  39) -10.26000000 +0  -4.10500000 +0 -13.10200000 +0
  C(ATOM    581  CA  VAL A  39) -11.20900000 +0  -3.70300000 +0 -12.06500000 +0
  C(ATOM    582  C   VAL A  39) -12.37700000 +0  -2.97900000 +0 -12.70500000 +0
  O(ATOM    583  O   VAL A  39) -12.17800000 +0  -2.01300000 +0 -13.48500000 +0
  C(ATOM    584  CB  VAL A  39) -10.49100000 +0  -2.81100000 +0 -11.03000000 +0
  C(ATOM    585  CG1 VAL A  39) -11.50700000 +0  -2.31100000 +0  -9.97900000 +0
  C(ATOM    586  CG2 VAL A  39)  -9.29600000 +0  -3.63200000 +0 -10.40000000 +0
  H(ATOM    587  H   VAL A  39)  -9.53626102 +1  -3.41700924 +1 -13.33580298 +1
  H(ATOM    588  HA  VAL A  39) -11.57122420 +1  -4.64524322 +1 -11.52988534 +1
  H(ATOM    589  HB  VAL A  39) -10.05776473 +1  -1.92027350 +1 -11.54293810 +1
  H(ATOM    590 1HG1 VAL A  39) -12.33432991 +1  -1.75349113 +1 -10.43621718 +1
  H(ATOM    591 2HG1 VAL A  39) -11.95151906 +1  -3.14026896 +1  -9.41325116 +1
  H(ATOM    592 3HG1 VAL A  39) -11.03172245 +1  -1.64122199 +1  -9.25644488 +1
  H(ATOM    593 1HG2 VAL A  39)  -8.52062384 +1  -3.81591658 +1 -11.14484804 +1
  H(ATOM    594 2HG2 VAL A  39)  -8.85814047 +1  -3.07997177 +1  -9.56758706 +1
  H(ATOM    595 3HG2 VAL A  39)  -9.65764555 +1  -4.59866875 +1 -10.03086946 +1
  N(ATOM    596  N   GLN A  40) -13.56900000 +0  -3.39000000 +0 -12.36100000 +0
  C(ATOM    597  CA  GLN A  40) -14.78300000 +0  -2.86400000 +0 -12.90300000 +0
  C(ATOM    598  C   GLN A  40) -15.24700000 +0  -1.63700000 +0 -12.14300000 +0
  O(ATOM    599  O   GLN A  40) -14.93100000 +0  -1.43600000 +0 -10.98000000 +0
  C(ATOM    600  CB  GLN A  40) -15.88200000 +0  -3.92900000 +0 -12.82500000 +0
  C(ATOM    601  CG  GLN A  40) -15.53400000 +0  -5.18000000 +0 -13.71500000 +0
  C(ATOM    602  CD  GLN A  40) -16.60300000 +0  -6.26200000 +0 -13.65700000 +0
  O(ATOM    603  OE1 GLN A  40) -17.59100000 +0  -6.19500000 +0 -12.91100000 +0
  N(ATOM    604  NE2 GLN A  40) -16.39700000 +0  -7.27700000 +0 -14.46200000 +0
  H(ATOM    605  H   GLN A  40) -13.69511488 +1  -4.14153086 +1 -11.62024322 +1
  H(ATOM    606  HA  GLN A  40) -14.60675393 +1  -2.58350527 +1 -13.99204229 +1
  H(ATOM    607 1HB  GLN A  40) -16.03288281 +1  -4.27575563 +1 -11.78069242 +1
  H(ATOM    608 2HB  GLN A  40) -16.85702344 +1  -3.51967293 +1 -13.15119293 +1
  H(ATOM    609 1HG  GLN A  40) -14.56449870 +1  -5.60338197 +1 -13.37510939 +1
  H(ATOM    610 2HG  GLN A  40) -15.37721997 +1  -4.84860359 +1 -14.76107092 +1
  H(ATOM    611 1HE2 GLN A  40) -15.55875891 +1  -7.36678383 +1 -15.02376902 +1
  H(ATOM    612 2HE2 GLN A  40) -17.01597189 +1  -8.07603624 +1 -14.50752344 +1
  N(ATOM    613  N   GLU A  41) -16.08800000 +0  -0.86100000 +0 -12.81100000 +0
  C(ATOM    614  CA  GLU A  41) -16.86500000 +0   0.16200000 +0 -12.18000000 +0
  C(ATOM    615  C   GLU A  41) -17.74700000 +0  -0.47100000 +0 -11.15400000 +0
  O(ATOM    616  O   GLU A  41) -18.39800000 +0  -1.48100000 +0 -11.38500000 +0
  C(ATOM    617  CB  GLU A  41) -17.69000000 +0   0.97100000 +0 -13.20300000 +0
  C(ATOM    618  CG  GLU A  41) -16.83800000 +0   1.55400000 +0 -14.25200000 +0
  C(ATOM    619  CD  GLU A  41) -17.60100000 +0   2.33000000 +0 -15.27500000 +0
  O(ATOM    620  OE1 GLU A  41) -18.85400000 +0   2.27800000 +0 -15.23700000 +0
  O(ATOM    621  OE2 GLU A  41) -16.91400000 +0   3.02800000 +0 -16.08700000 +0
  H(ATOM    622  H   GLU A  41) -16.36843393 +1  -1.10374290 +1 -13.77787797 +1
  H(ATOM    623  HA  GLU A  41) -16.14086967 +1   0.89327312 +1 -11.67994890 +1
  H(ATOM    624 1HB  GLU A  41) -18.25873365 +1   1.76314998 +1 -12.65507232 +1
  H(ATOM    625 2HB  GLU A  41) -18.48940435 +1   0.32138469 +1 -13.63544013 +1
  H(ATOM    626 1HG  GLU A  41) -16.04518157 +1   2.21782991 +1 -13.80508327 +1
  H(ATOM    627 2HG  GLU A  41) -16.22143679 +1   0.77984182 +1 -14.78663556 +1
  H(ATOM    628  HE2 GLU A  41) -17.41247835 +1   3.56856983 +1 -16.78831240 +1
  N(ATOM    629  N   GLY A  42) -17.79000000 +0   0.14100000 +0  -9.97500000 +0
  C(ATOM    630  CA  GLY A  42) -18.69100000 +0  -0.32000000 +0  -8.91600000 +0
  C(ATOM    631  C   GLY A  42) -18.07900000 +0  -1.40800000 +0  -8.01500000 +0
  O(ATOM    632  O   GLY A  42) -18.73500000 +0  -1.95900000 +0  -7.19600000 +0
[...]
  H(HETATM 2792 1H   HOH A2086) -15.48218028 +1 -20.50267291 +1 -17.51408026 +1
  H(HETATM 2793 2H   HOH A2086) -14.87769099 +1 -20.41207164 +1 -16.09700306 +1
  O(HETATM 2794  O   HOH A2087) -16.95800000 +0 -20.75900000 +0 -18.73200000 +0
  H(HETATM 2795 1H   HOH A2087) -17.11393629 +1 -19.86553928 +1 -19.06695627 +1
  H(HETATM 2796 2H   HOH A2087) -17.70742044 +1 -20.91179140 +1 -18.13505174 +1
  O(HETATM 2797  O   HOH A2088) -15.83600000 +0 -17.51100000 +0 -20.71300000 +0
  H(HETATM 2798 1H   HOH A2088) -15.67027592 +1 -18.44516050 +1 -20.79769764 +1
  H(HETATM 2799 2H   HOH A2088) -15.09319092 +1 -17.14079072 +1 -20.22562106 +1
  O(HETATM 2800  O   HOH A2089) -11.78600000 +0 -11.75800000 +0 -18.64800000 +0
  H(HETATM 2801 1H   HOH A2089) -10.86860566 +1 -11.49844669 +1 -18.72176212 +1
  H(HETATM 2802 2H   HOH A2089) -12.25314829 +1 -10.98157625 +1 -18.30205388 +1
  O(HETATM 2803  O   HOH A2090)  -3.81700000 +0 -24.88600000 +0 -21.23900000 +0
  H(HETATM 2804 1H   HOH A2090)  -3.04016693 +1 -24.75171687 +1 -21.82586907 +1
  H(HETATM 2805 2H   HOH A2090)  -4.12375371 +1 -24.01051151 +1 -21.02053545 +1
  O(HETATM 2806  O   HOH A2091)  -2.79500000 +0 -28.91600000 +0 -15.81700000 +0
  H(HETATM 2807 1H   HOH A2091)  -3.18801148 +1 -28.47821831 +1 -15.06122583 +1
  H(HETATM 2808 2H   HOH A2091)  -2.36841888 +1 -28.23119363 +1 -16.37320212 +1
  O(HETATM 2809  O   HOH A2092)  -1.57000000 +0 -24.45600000 +0 -22.53400000 +0
  H(HETATM 2810 1H   HOH A2092)  -1.36742295 +1 -25.07893352 +1 -23.25112185 +1
  H(HETATM 2811 2H   HOH A2092)  -1.58242883 +1 -23.58978272 +1 -22.96372932 +1
  O(HETATM 2812  O   HOH A2093)  -4.20200000 +0 -28.27100000 +0 -13.54800000 +0
  H(HETATM 2813 1H   HOH A2093)  -3.49004444 +1 -28.22745593 +1 -12.89172931 +1
  H(HETATM 2814 2H   HOH A2093)  -4.49493835 +1 -27.34429764 +1 -13.58646586 +1
  O(HETATM 2815  O   HOH A2094)  -4.70900000 +0 -27.76700000 +0  -9.80600000 +0
  H(HETATM 2816 1H   HOH A2094)  -4.31726972 +1 -27.23145903 +1 -10.50508177 +1
  H(HETATM 2817 2H   HOH A2094)  -5.60010781 +1 -27.43437964 +1  -9.68685751 +1
  O(HETATM 2818  O   HOH A2095)   4.71100000 +0 -28.90800000 +0  -7.31100000 +0
  H(HETATM 2819 1H   HOH A2095)   4.01953544 +1 -28.24482544 +1  -7.44176479 +1
  H(HETATM 2820 2H   HOH A2095)   5.50257400 +1 -28.50370836 +1  -7.67385133 +1
  O(HETATM 2821  O   HOH A2096)   7.11300000 +0 -27.58800000 +0  -8.89000000 +0
  H(HETATM 2822 1H   HOH A2096)   8.04249304 +1 -27.89398820 +1  -8.88577719 +1
  H(HETATM 2823 2H   HOH A2096)   6.95982774 +1 -27.33027791 +1  -9.80449987 +1
  O(HETATM 2824  O   HOH A2097)   3.90400000 +0 -27.73600000 +0  -5.51700000 +0
  H(HETATM 2825 1H   HOH A2097)   4.68698536 +1 -28.06001135 +1  -5.02173945 +1
  H(HETATM 2826 2H   HOH A2097)   3.97870012 +1 -26.78443022 +1  -5.42938754 +1
  O(HETATM 2827  O   HOH A2098)  12.34000000 +0 -20.75000000 +0  -9.01200000 +0
  H(HETATM 2828 1H   HOH A2098)  13.26155343 +1 -21.00338651 +1  -8.91254550 +1
  H(HETATM 2829 2H   HOH A2098)  12.05734031 +1 -20.46009483 +1  -8.13723844 +1
  O(HETATM 2830  O   HOH A2099)   8.59000000 +0 -25.44100000 +0 -13.24200000 +0
  H(HETATM 2831 1H   HOH A2099)   8.72787478 +1 -24.71493722 +1 -12.62290956 +1
  H(HETATM 2832 2H   HOH A2099)   8.17875402 +1 -26.12158762 +1 -12.71108992 +1
  O(HETATM 2833  O   HOH A2100)  12.28400000 +0 -20.76400000 +0 -16.14000000 +0
  H(HETATM 2834 1H   HOH A2100)  13.22665393 +1 -20.54814811 +1 -16.10174506 +1
  H(HETATM 2835 2H   HOH A2100)  12.02333480 +1 -20.91191823 +1 -15.22657186 +1
  O(HETATM 2836  O   HOH A2101)   9.89000000 +0 -14.32800000 +0 -16.17600000 +0
  H(HETATM 2837 1H   HOH A2101)   9.79286066 +1 -15.18917941 +1 -16.60895171 +1
  H(HETATM 2838 2H   HOH A2101)   9.22379672 +1 -13.75623392 +1 -16.55432634 +1
  O(HETATM 2839  O   HOH A2102)   9.90600000 +0 -14.65400000 +0 -20.12400000 +0
  H(HETATM 2840 1H   HOH A2102)   9.83813902 +1 -15.44331885 +1 -19.57256403 +1
  H(HETATM 2841 2H   HOH A2102)   9.04087780 +1 -14.24805375 +1 -20.01726795 +1
  O(HETATM 2842  O   HOH A2103)  13.56300000 +0 -11.43200000 +0 -17.88800000 +0
  H(HETATM 2843 1H   HOH A2103)  12.81629399 +1 -10.97717108 +1 -17.46326723 +1
  H(HETATM 2844 2H   HOH A2103)  14.32491242 +1 -11.25966606 +1 -17.32058119 +1
  O(HETATM 2845  O   HOH A2104)  12.47100000 +0 -13.70500000 +0 -17.02500000 +0
  H(HETATM 2846 1H   HOH A2104)  12.65693786 +1 -12.82878715 +1 -17.33598166 +1
  H(HETATM 2847 2H   HOH A2104)  11.58910694 +1 -13.72253875 +1 -16.62184916 +1
  O(HETATM 2848  O   HOH A2105)  14.47200000 +0 -14.26900000 +0 -10.67500000 +0
  H(HETATM 2849 1H   HOH A2105)  14.00588608 +1 -13.44624292 +1 -10.88317020 +1
  H(HETATM 2850 2H   HOH A2105)  13.97481494 +1 -14.67852741 +1  -9.97254407 +1
  O(HETATM 2851  O   HOH A2106)  15.09100000 +0  -8.30100000 +0  -8.52100000 +0
  H(HETATM 2852 1H   HOH A2106)  14.21960406 +1  -8.58412689 +1  -8.81961088 +1
  H(HETATM 2853 2H   HOH A2106)  14.94363772 +1  -7.91642773 +1  -7.66020322 +1
  O(HETATM 2854  O   HOH A2107)  11.28800000 +0 -15.97500000 +0   2.05300000 +0
  H(HETATM 2855 1H   HOH A2107)  10.71460302 +1 -15.74497274 +1   1.30590080 +1
  H(HETATM 2856 2H   HOH A2107)  10.67697892 +1 -16.10173388 +1   2.78465934 +1
  O(HETATM 2857  O   HOH A2108)   8.51600000 +0 -17.59300000 +0   0.00500000 +0
  H(HETATM 2858 1H   HOH A2108)   8.58333345 +1 -16.64489225 +1  -0.02028481 +1
  H(HETATM 2859 2H   HOH A2108)   7.63776348 +1 -17.88628063 +1   0.22607498 +1
  O(HETATM 2860  O   HOH A2109)  12.78200000 +0 -12.86400000 +0   3.51600000 +0
  H(HETATM 2861 1H   HOH A2109)  12.17373005 +1 -12.21681915 +1   3.12380731 +1
  H(HETATM 2862 2H   HOH A2109)  12.51762549 +1 -13.69517004 +1   3.10988093 +1
  O(HETATM 2863  O   HOH A2110)  16.30300000 +0  -9.82600000 +0  -3.73000000 +0
  H(HETATM 2864 1H   HOH A2110)  15.62516415 +1 -10.20388385 +1  -3.14165256 +1
  H(HETATM 2865 2H   HOH A2110)  16.39381269 +1  -8.92315214 +1  -3.41169708 +1
  O(HETATM 2866  O   HOH A2111)  14.80900000 +0  -9.96500000 +0   0.23300000 +0
  H(HETATM 2867 1H   HOH A2111)  14.96208826 +1  -9.02156840 +1   0.16288737 +1
  H(HETATM 2868 2H   HOH A2111)  14.02676656 +1 -10.15329259 +1  -0.29783426 +1
  O(HETATM 2869  O   HOH A2112)  13.72000000 +0 -15.70000000 +0  -4.84900000 +0
  H(HETATM 2870 1H   HOH A2112)  14.65748300 +1 -15.92106729 +1  -4.95722390 +1
  H(HETATM 2871 2H   HOH A2112)  13.43592980 +1 -16.24237739 +1  -4.10161766 +1
  O(HETATM 2872  O   HOH A2113)   4.67100000 +0  -8.31500000 +0   2.25300000 +0
  H(HETATM 2873 1H   HOH A2113)   3.90442891 +1  -7.73307215 +1   2.22032181 +1
  H(HETATM 2874 2H   HOH A2113)   5.43050255 +1  -7.74719888 +1   2.43755557 +1
  O(HETATM 2875  O   HOH A2114)   5.31000000 +0  -9.57000000 +0   0.11300000 +0
  H(HETATM 2876 1H   HOH A2114)   5.00252167 +1  -9.11696253 +1   0.90992552 +1
  H(HETATM 2877 2H   HOH A2114)   6.16247749 +1  -9.21657199 +1  -0.12264273 +1
  O(HETATM 2878  O   HOH A2115)   9.35300000 +0  -4.11100000 +0   1.88000000 +0
  H(HETATM 2879 1H   HOH A2115)   9.23752452 +1  -3.59048587 +1   1.06925841 +1
  H(HETATM 2880 2H   HOH A2115)   9.00437418 +1  -3.51018254 +1   2.55495191 +1
  O(HETATM 2881  O   HOH A2116)   1.35900000 +0  -1.63700000 +0   2.33500000 +0
  H(HETATM 2882 1H   HOH A2116)   0.79794855 +1  -1.23622057 +1   3.01688372 +1
  H(HETATM 2883 2H   HOH A2116)   2.04596530 +1  -2.10002999 +1   2.87270829 +1
  O(HETATM 2884  O   HOH A2117)   9.96100000 +0   1.44000000 +0  -9.04300000 +0
  H(HETATM 2885 1H   HOH A2117)   9.80536202 +1   0.57215328 +1  -8.64665728 +1
  H(HETATM 2886 2H   HOH A2117)  10.34889319 +1   1.98904301 +1  -8.35592143 +1
  O(HETATM 2887  O   HOH A2118)   5.38900000 +0   1.44900000 +0  -9.71600000 +0
  H(HETATM 2888 1H   HOH A2118)   5.50186150 +1   0.66129684 +1 -10.21591935 +1
  H(HETATM 2889 2H   HOH A2118)   6.18995859 +1   1.94954483 +1  -9.70643660 +1
  O(HETATM 2890  O   HOH A2119)   9.93900000 +0   4.86500000 +0 -19.47000000 +0
  H(HETATM 2891 1H   HOH A2119)  10.70508870 +1   4.38948371 +1 -19.85458115 +1
  H(HETATM 2892 2H   HOH A2119)   9.22652031 +1   4.26413513 +1 -19.34756033 +1
  O(HETATM 2893  O   HOH A2120)  13.10900000 +0   3.50800000 +0 -23.55400000 +0
  H(HETATM 2894 1H   HOH A2120)  13.34171915 +1   3.18231937 +1 -22.65741042 +1
  H(HETATM 2895 2H   HOH A2120)  13.69534170 +1   4.26046446 +1 -23.69319479 +1
  O(HETATM 2896  O   HOH A2121)   9.40600000 +0   4.86500000 +0 -26.89000000 +0
  H(HETATM 2897 1H   HOH A2121)   9.74451754 +1   5.70783424 +1 -27.22625382 +1
  H(HETATM 2898 2H   HOH A2121)   8.82113782 +1   4.54401895 +1 -27.58484330 +1
  O(HETATM 2899  O   HOH A2122)   8.50900000 +0  -7.79300000 +0 -28.02900000 +0
  H(HETATM 2900 1H   HOH A2122)   8.67365304 +1  -7.79749021 +1 -28.97475089 +1
  H(HETATM 2901 2H   HOH A2122)   8.30446588 +1  -6.87905578 +1 -27.79019597 +1
  O(HETATM 2902  O   HOH A2123)   5.33700000 +0  -8.72000000 +0 -29.30900000 +0
  H(HETATM 2903 1H   HOH A2123)   6.29169394 +1  -8.59545698 +1 -29.33994802 +1
  H(HETATM 2904 2H   HOH A2123)   4.97695749 +1  -8.08104828 +1 -29.93724568 +1
  O(HETATM 2905  O   HOH A2124)  11.47300000 +0 -12.29100000 +0 -23.45200000 +0
  H(HETATM 2906 1H   HOH A2124)  11.44690484 +1 -11.32252602 +1 -23.49248924 +1
  H(HETATM 2907 2H   HOH A2124)  10.57024146 +1 -12.54701390 +1 -23.25933221 +1
  O(HETATM 2908  O   HOH A2125)  13.49000000 +0  -7.98100000 +0 -22.22000000 +0
  H(HETATM 2909 1H   HOH A2125)  12.85627624 +1  -8.55963326 +1 -22.65479519 +1
  H(HETATM 2910 2H   HOH A2125)  13.63843873 +1  -8.37329675 +1 -21.35607064 +1
  O(HETATM 2911  O   HOH A2126)  17.43500000 +0   0.12700000 +0 -20.41000000 +0
  H(HETATM 2912 1H   HOH A2126)  16.50187302 +1   0.04709000 +1 -20.61651516 +1
  H(HETATM 2913 2H   HOH A2126)  17.78221685 +1  -0.77283390 +1 -20.33916289 +1
  O(HETATM 2914  O   HOH A2127)  13.13400000 +0   6.43300000 +0 -21.11700000 +0
  H(HETATM 2915 1H   HOH A2127)  12.84906949 +1   5.49904956 +1 -20.97522136 +1
  H(HETATM 2916 2H   HOH A2127)  12.31695690 +1   6.92936339 +1 -21.03140349 +1
  O(HETATM 2917  O   HOH A2128)  18.89800000 +0  -5.24700000 +0 -14.55800000 +0
  H(HETATM 2918 1H   HOH A2128)  18.16115534 +1  -4.88793969 +1 -14.05566650 +1
  H(HETATM 2919 2H   HOH A2128)  19.12079665 +1  -6.07029878 +1 -14.11510276 +1
  O(HETATM 2920  O   HOH A2129)   9.50900000 +0   4.51600000 +0 -12.07200000 +0
  H(HETATM 2921 1H   HOH A2129)  10.01377819 +1   3.68200285 +1 -12.07743683 +1
  H(HETATM 2922 2H   HOH A2129)   8.99973867 +1   4.45245959 +1 -11.25714491 +1
  O(HETATM 2923  O   HOH A2130)  14.56100000 +0  -4.07600000 +0  -5.91200000 +0
  H(HETATM 2924 1H   HOH A2130)  14.50432357 +1  -4.06927986 +1  -4.95242079 +1
  H(HETATM 2925 2H   HOH A2130)  14.23848559 +1  -3.21547256 +1  -6.18353099 +1
  O(HETATM 2926  O   HOH A2131)  15.65700000 +0  -7.17400000 +0   0.49400000 +0
  H(HETATM 2927 1H   HOH A2131)  15.07379489 +1  -6.68454344 +1  -0.11633946 +1
  H(HETATM 2928 2H   HOH A2131)  15.48914235 +1  -6.84653255 +1   1.37330034 +1
  O(HETATM 2929  O   HOH A2132)   7.07800000 +0   3.42100000 +0   1.40000000 +0
  H(HETATM 2930 1H   HOH A2132)   6.94924562 +1   3.66730990 +1   0.47635366 +1
  H(HETATM 2931 2H   HOH A2132)   7.92369508 +1   3.82759617 +1   1.63980995 +1
  O(HETATM 2932  O   HOH A2133)  -2.45300000 +0   0.31800000 +0  -2.58800000 +0
  H(HETATM 2933 1H   HOH A2133)  -1.51888365 +1   0.49881217 +1  -2.39551056 +1
  H(HETATM 2934 2H   HOH A2133)  -2.86272542 +1   0.32743396 +1  -1.71625457 +1
  O(HETATM 2935  O   HOH A2134)   2.71600000 +0  -6.93600000 +0 -19.02100000 +0
  H(HETATM 2936 1H   HOH A2134)   3.25153963 +1  -7.63521528 +1 -18.60078685 +1
  H(HETATM 2937 2H   HOH A2134)   3.15710323 +1  -6.11760689 +1 -18.76188506 +1
 
"[8OG]1157:A.C6" "[8OG]1157:A.N1"  User-supplied pi bonds
 

 -------------------------------------------------------------------------------
HTML OUTPUT noopt opt-H setpi t=2W GNORM=5 charge=-1 MOZYME eps=78.4
 Optimizing the positions of the hydrogen atoms



     HERBERTS TEST WAS SATISFIED IN BFGS                      
     SCF FIELD WAS ACHIEVED                                   


                              PM7 CALCULATION
                                                       MOPAC2016 (Version: 17.276W)
                                                       Wed Oct 04 05:58:18 2017




          FINAL HEAT OF FORMATION =     -23049.07118 KCAL/MOL =  -96437.31381 KJ/MOL
          VAN DER WAALS AREA      =       6337.62 SQUARE ANGSTROMS


          TOTAL ENERGY            =    -275226.15920 EV
          ELECTRONIC ENERGY       =  -30555177.43153 EV
          CORE-CORE REPULSION     =   30277482.24255 EV
          DIELECTRIC ENERGY       =        -54.14159 EV
          COSMO AREA              =       6337.62 SQUARE ANGSTROMS
          COSMO VOLUME            =      25493.24 CUBIC ANGSTROMS

          GRADIENT NORM           =          9.03156
          NO. OF FILLED LEVELS    =       4099
          MOLECULAR WEIGHT        =      20735.6060

          MOLECULAR DIMENSIONS (Angstroms)

            Atom       Atom       Distance
            H  2759    H   235    48.92566
            H  1500    O  2448    42.26053
            H  1764    H   635    40.18040


          SCF CALCULATIONS        =        292
 
          WALL-CLOCK TIME         =  8 HOURS 18 MINUTES AND 16.554 SECONDS
          COMPUTATION TIME        = 13 HOURS 15 MINUTES AND 32.656 SECONDS





           Empirical Formula: C817 H1514 N214 O382 S8 P  =  2936 atoms


          NET CHARGE ON RESIDUES

      Residue         Charge  Anion or
                              Cation?
      ALA A   3       -0.038
      SER A   4       +0.018
      ARG A   5       -0.001
      LEU A   6       +0.037
      TYR A   7       -0.012
      THR A   8       -0.001
      LEU A   9       +0.007
      VAL A  10       -0.015
      LEU A  11       +0.019
      VAL A  12       -0.030
      LEU A  13       +0.011
      GLN A  14       +0.054
      PRO A  15       +0.028
      GLN A  16       -0.050
      ARG A  17       +0.010
      VAL A  18       +0.009
      LEU A  19       -0.005
      LEU A  20       +0.032
      GLY A  21       +0.010
      MET A  22       -0.011
      LYS A  23       +1.008  CATION
      LYS A  24       +0.931  CATION
      ARG A  25       +0.005
      GLY A  26       +0.026
      PHE A  27       -0.016
      GLY A  28       -0.005
      ALA A  29       +0.008
      GLY A  30       -0.011
      ARG A  31       +0.951  CATION
      TRP A  32       +0.014
      ASN A  33       -0.002
      GLY A  34       +0.014
      PHE A  35       -0.011
      GLY A  36       -0.009
      GLY A  37       -0.013
      LYS A  38       +0.058
      VAL A  39       -0.057
      GLN A  40       +0.088
      GLU A  41       -0.007
      GLY A  42       -0.036
      GLU A  43       -0.863  ANION
      THR A  44       +0.006
      ILE A  45       -0.036
      GLU A  46       -0.916  ANION
      ASP A  47       -0.028
      GLY A  48       +0.084
      ALA A  49       -0.037
      ARG A  50       +0.951  CATION
      ARG A  51       +0.948  CATION
      GLU A  52       -0.049
      LEU A  53       +0.007
      GLN A  54       +0.050
      GLU A  55       -0.034
      GLU A  56       -0.062
      SER A  57       -0.035
      GLY A  58       +0.035
      LEU A  59       -0.024
      THR A  60       -0.011
      VAL A  61       +0.075
      ASP A  62       -0.054
      ALA A  63       +0.017
      LEU A  64       -0.002
      HIS A  65       -0.057
      LYS A  66       +0.063
      VAL A  67       -0.013
      GLY A  68       -0.037
      GLN A  69       -0.041
      ILE A  70       +0.023
      VAL A  71       +0.004
      PHE A  72       +0.028
      GLU A  73       -0.050
      PHE A  74       +0.014
      VAL A  75       +0.030
      GLY A  76       -0.049
      GLU A  77       +0.027
      PRO A  78       +0.027
      GLU A  79       -0.029
      LEU A  80       +0.055
      MET A  81       -0.015
      ASP A  82       -0.905  ANION
      VAL A  83       +0.070
      HIS A  84       +0.903  CATION
      VAL A  85       -0.022
      PHE A  86       +0.031
      CYS A  87       -0.008
      THR A  88       +0.050
      ASP A  89       -0.003
      SER A  90       -0.041
      ILE A  91       -0.009
      GLN A  92       +0.013
      GLY A  93       +0.047
      THR A  94       -0.006
      PRO A  95       -0.001
      VAL A  96       -0.006
      GLU A  97       -0.884  ANION
      SER A  98       +0.005
      ASP A  99       -0.013
      GLU A 100       +0.003
      MET A 101       +0.040
      ARG A 102       +0.007
      PRO A 103       -0.006
      CYS A 104       -0.015
      TRP A 105       +0.054
      PHE A 106       -0.018
      GLN A 107       +0.020
      LEU A 108       +0.017
      ASP A 109       -0.041
      GLN A 110       +0.007
      ILE A 111       +0.045
      PRO A 112       +0.000
      PHE A 113       -0.038
      LYS A 114       +0.074
      ASP A 115       -0.036
      MET A 116       -0.005
      TRP A 117       +0.035
      PRO A 118       -0.009
      ASP A 119       -0.150
      ASP A 120       -0.071
      SER A 121       +0.033
      TYR A 122       +0.038
      TRP A 123       -0.017
      PHE A 124       -0.019
      PRO A 125       +0.026
      LEU A 126       +0.013
      LEU A 127       +0.000
      LEU A 128       +0.015
      GLN A 129       +0.057
      LYS A 130       -0.013
      LYS A 131       +0.022
      LYS A 132       -0.029
      PHE A 133       +0.013
      HIS A 134       +0.833  CATION
      GLY A 135       +0.051
      TYR A 136       +0.046
      PHE A 137       +0.032
      LYS A 138       +0.935  CATION
      PHE A 139       +0.042
      GLN A 140       -0.020
      GLY A 141       +0.070
      GLN A 142       -0.034
      ASP A 143       -1.002  ANION
      THR A 144       -0.011
      ILE A 145       -0.004
      LEU A 146       +0.020
      ASP A 147       -0.946  ANION
      TYR A 148       +0.031
      THR A 149       +0.012
      LEU A 150       -0.008
      ARG A 151       -0.008
      GLU A 152       +0.067
      VAL A 153       +0.028
      ASP A 154       -0.030
      THR A 155       -0.010
      VAL A 156       -0.874  ANION
      8OG A1157       -1.585  ANION
      SO4 A1158       +0.025
      SO4 A1159       -0.022
 


                   Salt Bridges Found (Up to  8.0 Angstroms)

     No.          Cationic site                            Anionic site                Dist. (Angstroms)

      1  (ATOM    738  NH1 ARG A  50)   A50(+)    (ATOM    692  OE2 GLU A  46)   A46(-)      2.63
      2  (ATOM   2115  NE2 HIS A 134)  A134(+)    (ATOM   2471  O   VAL A 156)  A156(-)      2.67
      3  (ATOM    760  NE  ARG A  51)   A51(+)    (ATOM    643  OE1 GLU A  43)   A43(-)      2.77
      4  (ATOM    368  NZ  LYS A  24)   A24(+)    (ATOM   1470  OE2 GLU A  97)   A97(-)      2.79
      5  (ATOM    466  NH2 ARG A  31)   A31(+)    (ATOM   2262  OD1 ASP A 143)  A143(-)      2.80
      6  (ATOM   1278  ND1 HIS A  84)   A84(+)    (ATOM   1250  OD1 ASP A  82)   A82(-)      3.42
      7  (ATOM   2181  NZ  LYS A 138)  A138(+)    (ATOM   2327  OD2 ASP A 147)  A147(-)      3.80
      8  (ATOM   1280  NE2 HIS A  84)   A84(+)    (ATOM   2471  O   VAL A 156)  A156(-)      6.33


 DIPOLE           X         Y         Z       TOTAL
 POINT-CHG.   -17.478   109.815    49.638   121.773
 HYBRID         0.452    13.385     7.665    15.431
 SUM          -17.027   123.201    57.302   136.937

 **********************
 *                    *
 * JOB ENDED NORMALLY *
 *                    *
 **********************



 TOTAL JOB TIME:         29896.77 SECONDS

 == MOPAC DONE ==
