 *******************************************************************************
 ** Cite this program as: MOPAC2016, Version: 22.066W, James J. P. Stewart,   **
 **                           web-site: HTTP://OpenMOPAC.net.                 **
 *******************************************************************************
 **                                                                           **
 **                                MOPAC2016                                  **
 **                                                                           **
 *******************************************************************************

                              INDO CALCULATION RESULTS

 *******************************************************************************
 *  CALCULATION DONE:                                Sat May 14 20:36:41 2022  *
 *  INDO       - The INDO Hamiltonian to be used
 *  CISD       - C.I. USES 1 AND 2 ELECTRON EXCITATIONS
 *  C.I.=4     - 4 M.O.S TO BE USED IN C.I.
 *  T=         - A TIME OF 172800.0 SECONDS REQUESTED
 *  DUMP=N     - RESTART FILE WRITTEN EVERY 7200.0 SECONDS REQUESTED
 *******************************************************************************
INDO CISD C.I.=4


  ATOM    CHEMICAL      BOND LENGTH      BOND ANGLE     TWIST ANGLE 
 NUMBER    SYMBOL       (ANGSTROMS)      (DEGREES)       (DEGREES) 
   (I)                     NA:I           NB:NA:I       NC:NB:NA:I       NA    NB    NC 
     1       C          0.00000000       0.0000000       0.0000000        0     0     0
     2       C          1.31045000  *    0.0000000       0.0000000        1     0     0
     3       C          1.30000000  *  123.0057700  *    0.0000000        2     1     0
     4       C          1.30000000  *  120.0000000  *  180.0000000  *     3     2     1
     5       H          1.09178000  *  123.0119900  *    0.0000000  *     1     2     3
     6       H          1.09176000  *  123.0008900  *  180.0000000  *     1     2     3
     7       H          1.09179000  *  122.9947500  *    0.0000000  *     2     1     6
     8       H          1.09000000  *  120.0000000  *    0.0000000  *     3     2     1
     9       H          1.09000000  *  120.0000000  *    0.0000000  *     4     3     2
    10       H          1.09000000  *  120.0000000  *  180.0000000  *     4     3     2
 


          CARTESIAN COORDINATES 

    NO.       ATOM           X           Y           Z

     1         C          0.0000      0.0000      0.0000
     2         C          1.3105      0.0000      0.0000
     3         C          2.0186      1.0902      0.0000
     4         C          3.3168      1.0220      0.0000
     5         H         -0.5948      0.9155      0.0000
     6         H         -0.5946     -0.9156     -0.0000
     7         H          1.9050     -0.9157     -0.0000
     8         H          1.5238      2.0614      0.0000
     9         H          3.8116      0.0508      0.0000
    10         H          3.9106      1.9361      0.0000

           Empirical Formula: C4 H6  =    10 atoms



      MOLECULAR POINT GROUP   :   C2h 


      RHF CALCULATION, NO. OF DOUBLY OCCUPIED LEVELS = 11

 WARNING: INDO only performs single-point calculations

 Summary of symmetry occupancy in each shell:

 SHELL     
    1   11
    v   11
 TOTAL  22




    ROOT NO.    1           2           3           4           5           6

           -41.29655   -33.23256   -25.26008   -24.26002   -18.89202   -18.45896
  
  
  S  C   1   0.30812     0.51412     0.40226     0.03231    -0.13077     0.02112
 PX  C   1   0.14270     0.10233    -0.21872    -0.06545     0.50437    -0.00305
 PY  C   1   0.03573    -0.00373    -0.07906     0.22489    -0.01475     0.42734
 PZ  C   1  -0.00000    -0.00000    -0.00000     0.00000     0.00000     0.00000
  
  S  C   2   0.52379     0.27777    -0.25260    -0.22594     0.19194    -0.03558
 PX  C   2   0.04282    -0.29430    -0.25276    -0.12629    -0.32824    -0.01844
 PY  C   2   0.11718    -0.04972    -0.13240     0.34335    -0.08449     0.33592
 PZ  C   2  -0.00000    -0.00000     0.00000     0.00000    -0.00000     0.00000
  
  S  C   3   0.53556    -0.23632    -0.16256     0.32556    -0.11763    -0.12747
 PX  C   3  -0.01120    -0.28877     0.23291    -0.17860    -0.19980    -0.22735
 PY  C   3  -0.12594    -0.05486     0.21957     0.31680     0.16555    -0.25590
 PZ  C   3   0.00000    -0.00000     0.00000    -0.00000    -0.00000     0.00000
  
  S  C   4   0.34806    -0.47278     0.38653    -0.14831     0.09807     0.12429
 PX  C   4  -0.15739     0.09505     0.18089    -0.13258     0.35172     0.32876
 PY  C   4  -0.03641    -0.01531     0.14408     0.24047     0.26436    -0.28930
 PZ  C   4  -0.00000     0.00000    -0.00000    -0.00000    -0.00000     0.00000
  
  S  H   5   0.12373     0.21493     0.23438     0.17737    -0.27786     0.28905
  
  S  H   6   0.09238     0.22036     0.31535    -0.08349    -0.26254    -0.26637
  
  S  H   7   0.21355     0.05982    -0.13423    -0.37134     0.01598    -0.21977
  
  S  H   8   0.20054    -0.06404    -0.01611     0.41376     0.11103    -0.15195
  
  S  H   9   0.14947    -0.19525     0.15804    -0.27552    -0.00923     0.36849
  
  S  H  10   0.10693    -0.20824     0.33086     0.01112     0.36523     0.01241




    ROOT NO.    7           8           9          10          11          12

           -14.14041   -13.35607   -12.69301   -12.56343    -8.37536     0.41226
  
  
  S  C   1   0.00160    -0.10965     0.00000    -0.05423     0.00000     0.00000
 PX  C   1  -0.07497    -0.31314     0.00000    -0.21625    -0.00000    -0.00000
 PY  C   1   0.37712     0.11102     0.00000    -0.28947    -0.00000    -0.00000
 PZ  C   1  -0.00000    -0.00000     0.39423     0.00000     0.59888     0.58398
  
  S  C   2   0.10858     0.01179    -0.00000     0.05600    -0.00000    -0.00000
 PX  C   2   0.12786     0.35813    -0.00000     0.27258     0.00000    -0.00000
 PY  C   2  -0.11025    -0.28280    -0.00000     0.35868    -0.00000     0.00000
 PZ  C   2  -0.00000    -0.00000     0.58044     0.00000     0.38848    -0.40613
  
  S  C   3  -0.09837    -0.03004    -0.00000     0.05575     0.00000     0.00000
 PX  C   3   0.20220    -0.33401     0.00000    -0.30133     0.00000     0.00000
 PY  C   3  -0.20669     0.25580     0.00000    -0.34282     0.00000    -0.00000
 PZ  C   3  -0.00000    -0.00000     0.58495     0.00000    -0.37996    -0.39495
  
  S  C   4   0.01098    -0.11060     0.00000    -0.04152    -0.00000     0.00000
 PX  C   4  -0.13959     0.31516    -0.00000     0.24436     0.00000    -0.00000
 PY  C   4   0.42250    -0.00498    -0.00000     0.24864    -0.00000     0.00000
 PZ  C   4  -0.00000    -0.00000     0.40683     0.00000    -0.58827     0.58141
  
  S  H   5   0.32304     0.20774     0.00000    -0.17923    -0.00000    -0.00000
  
  S  H   6  -0.26861     0.01239    -0.00000     0.34371    -0.00000    -0.00000
  
  S  H   7   0.17865     0.42506     0.00000    -0.14751    -0.00000     0.00000
  
  S  H   8  -0.29062     0.36247     0.00000    -0.14742     0.00000    -0.00000
  
  S  H   9  -0.39101     0.11045     0.00000    -0.15519     0.00000    -0.00000
  
  S  H  10   0.27332     0.11032    -0.00000     0.32847     0.00000    -0.00000




    ROOT NO.   13          14          15          16          17          18

             2.89467     3.60167     4.29414     4.97181     5.88622     7.52836
  
  
  S  C   1   0.00000    -0.38448     0.41045     0.27714    -0.15327     0.00147
 PX  C   1   0.00000    -0.04967    -0.03897    -0.19032     0.26533    -0.06858
 PY  C   1  -0.00000    -0.00610     0.02284    -0.01988     0.05965     0.67407
 PZ  C   1   0.38065     0.00000    -0.00000    -0.00000     0.00000     0.00000
  
  S  C   2  -0.00000     0.44821    -0.22462     0.26075    -0.30006     0.06904
 PX  C   2  -0.00000    -0.00215     0.15398     0.21310    -0.15404    -0.00720
 PY  C   2   0.00000     0.01053     0.11861     0.01978     0.32913    -0.04415
 PZ  C   2  -0.58927    -0.00000     0.00000    -0.00000     0.00000    -0.00000
  
  S  C   3   0.00000    -0.41445    -0.23044    -0.33792    -0.27345    -0.02184
 PX  C   3  -0.00000     0.01307    -0.16417     0.21240     0.09620    -0.01141
 PY  C   3  -0.00000     0.02677    -0.11218    -0.06508    -0.29518     0.07449
 PZ  C   3   0.59790     0.00000    -0.00000    -0.00000    -0.00000    -0.00000
  
  S  C   4  -0.00000     0.35638     0.44944    -0.27141    -0.09139    -0.00155
 PX  C   4   0.00000    -0.03443     0.05307    -0.23175    -0.22809    -0.04199
 PY  C   4  -0.00000    -0.00642    -0.02167    -0.01884    -0.01300     0.22783
 PZ  C   4  -0.38780    -0.00000    -0.00000     0.00000     0.00000    -0.00000
  
  S  H   5  -0.00000     0.22967    -0.32291    -0.24149     0.12154    -0.48454
  
  S  H   6  -0.00000     0.23253    -0.23836    -0.26932     0.27478     0.42683
  
  S  H   7   0.00000    -0.27738     0.19321    -0.27290     0.42662     0.00292
  
  S  H   8   0.00000     0.25640     0.19205     0.35595     0.36282    -0.07496
  
  S  H   9   0.00000    -0.21300    -0.36258     0.24456     0.08984     0.18222
  
  S  H  10   0.00000    -0.23002    -0.27671     0.29947     0.19174    -0.13615




    ROOT NO.   19          20          21          22

             7.74054     9.08403     9.97651    13.26704
  
  
  S  C   1   0.00600    -0.03830    -0.10101     0.13062
 PX  C   1  -0.04628    -0.24275    -0.40729     0.41223
 PY  C   1  -0.23036    -0.08107     0.03476     0.03132
 PZ  C   1  -0.00000    -0.00000    -0.00000     0.00000
  
  S  C   2  -0.00255     0.20986     0.14646     0.02858
 PX  C   2  -0.01581    -0.11859    -0.40191     0.48577
 PY  C   2   0.10067     0.52516     0.14095     0.27742
 PZ  C   2   0.00000     0.00000     0.00000    -0.00000
  
  S  C   3  -0.04429    -0.18633     0.17083    -0.03107
 PX  C   3  -0.00342    -0.06223     0.44444     0.46093
 PY  C   3  -0.09667     0.53113    -0.18838     0.27719
 PZ  C   3   0.00000    -0.00000     0.00000     0.00000
  
  S  C   4   0.00577     0.03831    -0.12649    -0.12754
 PX  C   4   0.02071    -0.19698     0.45260     0.38731
 PY  C   4   0.68168    -0.06277    -0.06238     0.02163
 PZ  C   4  -0.00000    -0.00000     0.00000     0.00000
  
  S  H   5   0.12451    -0.06129    -0.14286     0.08453
  
  S  H   6  -0.17030    -0.10409    -0.10088     0.12270
  
  S  H   7   0.06804     0.32771     0.17074    -0.00807
  
  S  H   8   0.03467    -0.32349     0.19655    -0.01322
  
  S  H   9   0.45305     0.04165    -0.15447    -0.06955
  
  S  H  10  -0.44978     0.07650    -0.10340    -0.11826


 Reference determinate nber   1 is ALPHA 1 -  11
 SINGLE excitations FROM orbs  10 to  11 INTO orbs  12 to  13
 DOUBLE excitations FROM orbs  10 to  11 INTO orbs  12 to  13
 

 CI excitations=   15:        = 15
 The lowest   15 spin-adapted configurations of multiplicity=  1
     sym   eV   cm**-1 -dets- dipole oscilator X FRAG ....Excitations named from first reference determinate
                       tot  #  Debye  strength
 
   1     -0.000      0.  1  1  0.0628 0.000000 0  0 (        )->(           )
   2      5.949  47986.  2  1  0.0136 1.158241 1  1 (  11    )->(  12       )
   3      7.245  58434.  2  1  0.1868 0.000271 1  1 (  11    )->(  13       )
   4      7.301  58885.  2  1  0.1704 0.002855 1  1 (  10    )->(  12       )
   5      7.988  64429.  1  1  0.0897 0.000000 2  0 (  11  11)->(  12  12   )
   6      9.538  76933.  2  1  0.2978 0.000007 1  1 (  10    )->(  13       )
   7     11.263  90839.  2  1  0.2410 0.000000 2  1 (  10  11)->(  12  12   )
   8     11.868  95721.  2  1  0.2546 0.000000 2  1 (  11  11)->(  12  13   )
   9     12.997 104826.  1  1  0.4271 0.000000 2  0 (  11  11)->(  13  13   )
  10     14.138 114034.  6  1  0.3739 0.000000 2  1 (  10  11)->(  12  13   )
  11     15.371 123978.  1  1  0.3988 0.000000 2  0 (  10  10)->(  12  12   )
  12     15.455 124650.  6  2  0.3739 0.000000 2  1 (  10  11)->(  12  13   )
  13     15.990 128965.  2  1  0.5313 0.000000 2  1 (  10  11)->(  13  13   )
  14     18.969 152998.  2  1  0.5154 0.000000 2  1 (  10  10)->(  12  13   )
  15     19.817 159833.  1  1  0.6581 0.000000 2  0 (  10  10)->(  13  13   )

 Depression of ground-state after CI=      -4121. cm**-1 Energy=  -722.9071038 eV
 Dipole moment=  0.054979  0.022404 -0.000000 tot=  0.059369 Debyes


  CI trans.  energy frequency wavelength oscillator--------- polarization---------  dipole  ------ components-----
 st.  symm.    eV      cm - 1       nm      strength       x          y         z       moment     x       y       z 

   2      5.9914133    48324.    206.94  0.012317  -0.992975  -0.118328  -0.000000  0.506630   0.398  -0.313  -0.000
   3      6.3159186    50941.    196.30  0.780655  -0.979647  -0.200729  -0.000000  0.498116  -0.454   0.204  -0.000
   4      7.6156223    61424.    162.80  0.002740   0.000000   0.000000   1.000000  0.109712  -0.099   0.048  -0.000
   5      9.3397427    75330.    132.75  0.000003   0.000000   0.000000  -1.000000  0.199898  -0.194  -0.050  -0.000
   6      9.7730855    78825.    126.86  0.000091  -0.816788   0.576938  -0.000000  0.207944   0.205   0.036  -0.000
   7     11.8583654    95644.    104.55  0.000003  -0.000000  -0.000000  -1.000000  0.106783  -0.105  -0.018  -0.000
   8     12.5242130   101015.     99.00  0.046758  -0.693251  -0.720696   0.000000  0.182729   0.131   0.127  -0.000
   9     14.5033836   116978.     85.49  0.000096  -0.722985  -0.690863  -0.000000  1.216803  -1.001  -0.692  -0.000
  10     14.6489701   118152.     84.64  0.000012   0.000000   0.000000  -1.000000  0.073392  -0.017   0.071   0.000
  11     15.2336878   122868.     81.39  0.000000   0.923751   0.382993   0.000000  0.404150  -0.403   0.025   0.000
  12     16.1522992   130277.     76.76  0.000129   0.000000   0.000000   1.000000  0.669577   0.524   0.417  -0.000
  13     17.1351118   138204.     72.36  0.000000   0.000000   0.000000  -1.000000  2.224713  -1.966  -1.041  -0.000
  14     19.4691570   157030.     63.68  0.000326   0.845149   0.534531   0.000000  1.106151   0.888   0.659   0.000
  15     20.9921134   169313.     59.06  0.000005  -0.881309  -0.472540   0.000000  2.221457  -2.009  -0.949  -0.000
 
 Polarizability (au  ) xx=   42.79 xy=    8.97 yy=    2.11 xz=    0.00 yz=    0.00 zz=    0.11
 Polarizability (A**3) xx=    6.34 xy=    1.33 yy=    0.31 xz=    0.00 yz=    0.00 zz=    0.02
 
 
 Major CI contributions to CI states
 
State    1  0.0000     CI coeff  CI percent
    Config       1   0.97406192  0.94879663
    Config       5  -0.21680625  0.04700495
    Config       9  -0.05777833  0.00333834
 Total coeff printed             0.99913992
  
State    2  5.9914     CI coeff  CI percent
    Config       1  -0.12774026  0.01631757
    Config       2   0.12300530  0.01513030
    Config       3  -0.74496330  0.55497032
    Config       5  -0.56001130  0.31361265
    Config       9   0.31472595  0.09905242
 Total coeff printed             0.99908327
  
State    3  6.3159     CI coeff  CI percent
    Config       2   0.98022047  0.96083217
    Config       3   0.09629170  0.00927209
    Config       5   0.06895370  0.00475461
    Config       8  -0.15253590  0.02326720
    Config       9  -0.04042530  0.00163420
 Total coeff printed             0.99976029
  
State    4  7.6156     CI coeff  CI percent
    Config       4  -0.98842547  0.97698492
    Config      12   0.15030203  0.02259070
 Total coeff printed             0.99957562
  
State    5  9.3397     CI coeff  CI percent
    Config       6   0.84839002  0.71976563
    Config       7   0.49548076  0.24550119
    Config      13  -0.18615715  0.03465448
 Total coeff printed             0.99992130
  
State    6  9.7731     CI coeff  CI percent
    Config       1   0.13875984  0.01925429
    Config       3  -0.63948172  0.40893687
    Config       5   0.74343911  0.55270171
    Config       9  -0.13598752  0.01849261
 Total coeff printed             0.99938548
  
State    7 11.8584     CI coeff  CI percent
    Config       6   0.52857178  0.27938813
    Config       7  -0.80811877  0.65305595
    Config      13   0.25891184  0.06703534
 Total coeff printed             0.99947942
  
State    8 12.5242     CI coeff  CI percent
    Config       2  -0.15476845  0.02395327
    Config       8  -0.98626982  0.97272816
    Config       9   0.04715790  0.00222387
 Total coeff printed             0.99890530
  
State    9 14.5034     CI coeff  CI percent
    Config       1  -0.12343652  0.01523658
    Config       3  -0.15862831  0.02516294
    Config       5  -0.28580584  0.08168498
    Config       8  -0.05014731  0.00251475
    Config       9  -0.93545687  0.87507956
 Total coeff printed             0.99967881
  
State   10 14.6490     CI coeff  CI percent
    Config      10   0.99902281  0.99804658
 Total coeff printed             0.99804658
  
State   11 15.2337     CI coeff  CI percent
    Config      11  -0.94158564  0.88658351
    Config      15   0.33643070  0.11318562
 Total coeff printed             0.99976913
  
State   12 16.1523     CI coeff  CI percent
    Config       4  -0.14989477  0.02246844
    Config      12  -0.98402370  0.96830265
    Config      13   0.09176396  0.00842063
 Total coeff printed             0.99919172
  
State   13 17.1351     CI coeff  CI percent
    Config       7   0.31713420  0.10057410
    Config      12   0.09216283  0.00849399
    Config      13   0.94282311  0.88891541
 Total coeff printed             0.99798350
  
State   14 19.4692     CI coeff  CI percent
    Config      14   0.99587202  0.99176108
    Config      15  -0.08539778  0.00729278
 Total coeff printed             0.99905386
  
State   15 20.9921     CI coeff  CI percent
    Config      11  -0.33515307  0.11232758
    Config      14  -0.08982631  0.00806877
    Config      15  -0.93772882  0.87933534
 Total coeff printed             0.99973168
  

 **********************
 *                    *
 * JOB ENDED NORMALLY *
 *                    *
 **********************



 TOTAL JOB TIME:             0.08 SECONDS

 == MOPAC DONE ==
