 *******************************************************************************
 ** Cite this program as: MOPAC2016, Version: 22.066W, James J. P. Stewart,   **
 **                           web-site: HTTP://OpenMOPAC.net.                 **
 *******************************************************************************
 **                                                                           **
 **                                MOPAC2016                                  **
 **                                                                           **
 *******************************************************************************

                              INDO CALCULATION RESULTS

 *******************************************************************************
 *  CALCULATION DONE:                                Sat May 14 20:40:40 2022  *
 *  INDO       - The INDO Hamiltonian to be used
 *  C.I.=6     - 6 M.O.S TO BE USED IN C.I.
 *  T=         - A TIME OF 172800.0 SECONDS REQUESTED
 *  DUMP=N     - RESTART FILE WRITTEN EVERY 7200.0 SECONDS REQUESTED
 *******************************************************************************
INDO C.I.=6


  ATOM    CHEMICAL      BOND LENGTH      BOND ANGLE     TWIST ANGLE 
 NUMBER    SYMBOL       (ANGSTROMS)      (DEGREES)       (DEGREES) 
   (I)                     NA:I           NB:NA:I       NC:NB:NA:I       NA    NB    NC 
     1       C          0.00000000       0.0000000       0.0000000        0     0     0
     2       C          1.31045000  *    0.0000000       0.0000000        1     0     0
     3       C          1.30000000  *  123.0057700  *    0.0000000        2     1     0
     4       C          1.30000000  *  120.0000000  *  180.0000000  *     3     2     1
     5       H          1.09178000  *  123.0119900  *    0.0000000  *     1     2     3
     6       H          1.09176000  *  123.0008900  *  180.0000000  *     1     2     3
     7       H          1.09179000  *  122.9947500  *    0.0000000  *     2     1     6
     8       H          1.09000000  *  120.0000000  *    0.0000000  *     3     2     1
     9       H          1.09000000  *  120.0000000  *    0.0000000  *     4     3     2
    10       H          1.09000000  *  120.0000000  *  180.0000000  *     4     3     2
 


          CARTESIAN COORDINATES 

    NO.       ATOM           X           Y           Z

     1         C          0.0000      0.0000      0.0000
     2         C          1.3105      0.0000      0.0000
     3         C          2.0186      1.0902      0.0000
     4         C          3.3168      1.0220      0.0000
     5         H         -0.5948      0.9155      0.0000
     6         H         -0.5946     -0.9156     -0.0000
     7         H          1.9050     -0.9157     -0.0000
     8         H          1.5238      2.0614      0.0000
     9         H          3.8116      0.0508      0.0000
    10         H          3.9106      1.9361      0.0000

           Empirical Formula: C4 H6  =    10 atoms



      MOLECULAR POINT GROUP   :   C2h 


      RHF CALCULATION, NO. OF DOUBLY OCCUPIED LEVELS = 11

 WARNING: INDO only performs single-point calculations

 Summary of symmetry occupancy in each shell:

 SHELL     
    1   11
    v   11
 TOTAL  22




    ROOT NO.    1           2           3           4           5           6

           -41.29655   -33.23256   -25.26008   -24.26002   -18.89202   -18.45896
  
  
  S  C   1   0.30812     0.51412     0.40226     0.03231    -0.13077     0.02112
 PX  C   1   0.14270     0.10233    -0.21872    -0.06545     0.50437    -0.00305
 PY  C   1   0.03573    -0.00373    -0.07906     0.22489    -0.01475     0.42734
 PZ  C   1  -0.00000    -0.00000    -0.00000     0.00000     0.00000     0.00000
  
  S  C   2   0.52379     0.27777    -0.25260    -0.22594     0.19194    -0.03558
 PX  C   2   0.04282    -0.29430    -0.25276    -0.12629    -0.32824    -0.01844
 PY  C   2   0.11718    -0.04972    -0.13240     0.34335    -0.08449     0.33592
 PZ  C   2  -0.00000    -0.00000     0.00000     0.00000    -0.00000     0.00000
  
  S  C   3   0.53556    -0.23632    -0.16256     0.32556    -0.11763    -0.12747
 PX  C   3  -0.01120    -0.28877     0.23291    -0.17860    -0.19980    -0.22735
 PY  C   3  -0.12594    -0.05486     0.21957     0.31680     0.16555    -0.25590
 PZ  C   3   0.00000    -0.00000     0.00000    -0.00000    -0.00000     0.00000
  
  S  C   4   0.34806    -0.47278     0.38653    -0.14831     0.09807     0.12429
 PX  C   4  -0.15739     0.09505     0.18089    -0.13258     0.35172     0.32876
 PY  C   4  -0.03641    -0.01531     0.14408     0.24047     0.26436    -0.28930
 PZ  C   4  -0.00000     0.00000    -0.00000    -0.00000    -0.00000     0.00000
  
  S  H   5   0.12373     0.21493     0.23438     0.17737    -0.27786     0.28905
  
  S  H   6   0.09238     0.22036     0.31535    -0.08349    -0.26254    -0.26637
  
  S  H   7   0.21355     0.05982    -0.13423    -0.37134     0.01598    -0.21977
  
  S  H   8   0.20054    -0.06404    -0.01611     0.41376     0.11103    -0.15195
  
  S  H   9   0.14947    -0.19525     0.15804    -0.27552    -0.00923     0.36849
  
  S  H  10   0.10693    -0.20824     0.33086     0.01112     0.36523     0.01241




    ROOT NO.    7           8           9          10          11          12

           -14.14041   -13.35607   -12.69301   -12.56343    -8.37536     0.41226
  
  
  S  C   1   0.00160    -0.10965     0.00000    -0.05423     0.00000     0.00000
 PX  C   1  -0.07497    -0.31314     0.00000    -0.21625    -0.00000    -0.00000
 PY  C   1   0.37712     0.11102     0.00000    -0.28947    -0.00000    -0.00000
 PZ  C   1  -0.00000    -0.00000     0.39423     0.00000     0.59888     0.58398
  
  S  C   2   0.10858     0.01179    -0.00000     0.05600    -0.00000    -0.00000
 PX  C   2   0.12786     0.35813    -0.00000     0.27258     0.00000    -0.00000
 PY  C   2  -0.11025    -0.28280    -0.00000     0.35868    -0.00000     0.00000
 PZ  C   2  -0.00000    -0.00000     0.58044     0.00000     0.38848    -0.40613
  
  S  C   3  -0.09837    -0.03004    -0.00000     0.05575     0.00000     0.00000
 PX  C   3   0.20220    -0.33401     0.00000    -0.30133     0.00000     0.00000
 PY  C   3  -0.20669     0.25580     0.00000    -0.34282     0.00000    -0.00000
 PZ  C   3  -0.00000    -0.00000     0.58495     0.00000    -0.37996    -0.39495
  
  S  C   4   0.01098    -0.11060     0.00000    -0.04152    -0.00000     0.00000
 PX  C   4  -0.13959     0.31516    -0.00000     0.24436     0.00000    -0.00000
 PY  C   4   0.42250    -0.00498    -0.00000     0.24864    -0.00000     0.00000
 PZ  C   4  -0.00000    -0.00000     0.40683     0.00000    -0.58827     0.58141
  
  S  H   5   0.32304     0.20774     0.00000    -0.17923    -0.00000    -0.00000
  
  S  H   6  -0.26861     0.01239    -0.00000     0.34371    -0.00000    -0.00000
  
  S  H   7   0.17865     0.42506     0.00000    -0.14751    -0.00000     0.00000
  
  S  H   8  -0.29062     0.36247     0.00000    -0.14742     0.00000    -0.00000
  
  S  H   9  -0.39101     0.11045     0.00000    -0.15519     0.00000    -0.00000
  
  S  H  10   0.27332     0.11032    -0.00000     0.32847     0.00000    -0.00000




    ROOT NO.   13          14          15          16          17          18

             2.89467     3.60167     4.29414     4.97181     5.88622     7.52836
  
  
  S  C   1   0.00000    -0.38448     0.41045     0.27714    -0.15327     0.00147
 PX  C   1   0.00000    -0.04967    -0.03897    -0.19032     0.26533    -0.06858
 PY  C   1  -0.00000    -0.00610     0.02284    -0.01988     0.05965     0.67407
 PZ  C   1   0.38065     0.00000    -0.00000    -0.00000     0.00000     0.00000
  
  S  C   2  -0.00000     0.44821    -0.22462     0.26075    -0.30006     0.06904
 PX  C   2  -0.00000    -0.00215     0.15398     0.21310    -0.15404    -0.00720
 PY  C   2   0.00000     0.01053     0.11861     0.01978     0.32913    -0.04415
 PZ  C   2  -0.58927    -0.00000     0.00000    -0.00000     0.00000    -0.00000
  
  S  C   3   0.00000    -0.41445    -0.23044    -0.33792    -0.27345    -0.02184
 PX  C   3  -0.00000     0.01307    -0.16417     0.21240     0.09620    -0.01141
 PY  C   3  -0.00000     0.02677    -0.11218    -0.06508    -0.29518     0.07449
 PZ  C   3   0.59790     0.00000    -0.00000    -0.00000    -0.00000    -0.00000
  
  S  C   4  -0.00000     0.35638     0.44944    -0.27141    -0.09139    -0.00155
 PX  C   4   0.00000    -0.03443     0.05307    -0.23175    -0.22809    -0.04199
 PY  C   4  -0.00000    -0.00642    -0.02167    -0.01884    -0.01300     0.22783
 PZ  C   4  -0.38780    -0.00000    -0.00000     0.00000     0.00000    -0.00000
  
  S  H   5  -0.00000     0.22967    -0.32291    -0.24149     0.12154    -0.48454
  
  S  H   6  -0.00000     0.23253    -0.23836    -0.26932     0.27478     0.42683
  
  S  H   7   0.00000    -0.27738     0.19321    -0.27290     0.42662     0.00292
  
  S  H   8   0.00000     0.25640     0.19205     0.35595     0.36282    -0.07496
  
  S  H   9   0.00000    -0.21300    -0.36258     0.24456     0.08984     0.18222
  
  S  H  10   0.00000    -0.23002    -0.27671     0.29947     0.19174    -0.13615




    ROOT NO.   19          20          21          22

             7.74054     9.08403     9.97651    13.26704
  
  
  S  C   1   0.00600    -0.03830    -0.10101     0.13062
 PX  C   1  -0.04628    -0.24275    -0.40729     0.41223
 PY  C   1  -0.23036    -0.08107     0.03476     0.03132
 PZ  C   1  -0.00000    -0.00000    -0.00000     0.00000
  
  S  C   2  -0.00255     0.20986     0.14646     0.02858
 PX  C   2  -0.01581    -0.11859    -0.40191     0.48577
 PY  C   2   0.10067     0.52516     0.14095     0.27742
 PZ  C   2   0.00000     0.00000     0.00000    -0.00000
  
  S  C   3  -0.04429    -0.18633     0.17083    -0.03107
 PX  C   3  -0.00342    -0.06223     0.44444     0.46093
 PY  C   3  -0.09667     0.53113    -0.18838     0.27719
 PZ  C   3   0.00000    -0.00000     0.00000     0.00000
  
  S  C   4   0.00577     0.03831    -0.12649    -0.12754
 PX  C   4   0.02071    -0.19698     0.45260     0.38731
 PY  C   4   0.68168    -0.06277    -0.06238     0.02163
 PZ  C   4  -0.00000    -0.00000     0.00000     0.00000
  
  S  H   5   0.12451    -0.06129    -0.14286     0.08453
  
  S  H   6  -0.17030    -0.10409    -0.10088     0.12270
  
  S  H   7   0.06804     0.32771     0.17074    -0.00807
  
  S  H   8   0.03467    -0.32349     0.19655    -0.01322
  
  S  H   9   0.45305     0.04165    -0.15447    -0.06955
  
  S  H  10  -0.44978     0.07650    -0.10340    -0.11826


 Reference determinate nber   1 is ALPHA 1 -  11
 SINGLE excitations FROM orbs   9 to  11 INTO orbs  12 to  14
 

 CI excitations=   10:        = 10
 The lowest   10 spin-adapted configurations of multiplicity=  1
     sym   eV   cm**-1 -dets- dipole oscilator X FRAG ....Excitations named from first reference determinate
                       tot  #  Debye  strength
 
   1      0.000      0.  1  1  0.0628 0.000000 0  0 (    )->(       )
   2      5.950  47986.  1  1  0.0136 1.158256 1  1 (  11)->(  12   )
   3      6.776  54654.  1  1  0.2819 0.003073 1  1 (  11)->(  14   )
   4      7.246  58441.  1  1  0.1868 0.000271 1  1 (  11)->(  13   )
   5      7.300  58881.  1  1  0.1704 0.002855 1  1 (  10)->(  12   )
   6      9.140  73720.  1  1  0.2460 0.000301 1  1 (   9)->(  12   )
   7      9.539  76937.  1  1  0.2978 0.000007 1  1 (  10)->(  13   )
   8     10.895  87875.  1  1  0.5413 0.000052 1  1 (   9)->(  14   )
   9     11.244  90693.  1  1  0.0888 0.233982 1  1 (   9)->(  13   )
  10     11.412  92043.  1  1  0.2079 0.095333 1  1 (  10)->(  14   )

 Depression of ground-state after CI=          0. cm**-1 Energy= -1741.3952569 eV
 Dipole moment=  0.060852  0.015520 -0.000000 tot=  0.062800 Debyes


  CI trans.  energy frequency wavelength oscillator--------- polarization---------  dipole  ------ components-----
 st.  symm.    eV      cm - 1       nm      strength       x          y         z       moment     x       y       z 

   2      5.9013981    47598.    210.09  1.089808   0.983913   0.178649   0.000000  0.142189  -0.126  -0.066  -0.000
   3      6.7752398    54646.    183.00  0.002909  -0.000000  -0.000000   1.000000  0.167120   0.132   0.103  -0.000
   4      6.9973267    56437.    177.19  0.000419   0.797820   0.602895   0.000000  0.055604   0.021  -0.052   0.000
   5      7.3003788    58882.    169.83  0.003025  -0.000000  -0.000000   1.000000  0.106389  -0.058   0.089  -0.000
   6      9.3880142    75720.    132.07  0.000308   0.638148  -0.769914  -0.000000  0.212048   0.175   0.119  -0.000
   7      9.5387263    76935.    129.98  0.000003   0.000000  -0.000000  -1.000000  0.421156  -0.389  -0.162  -0.000
   8     10.8961492    87884.    113.79  0.000064   0.000000  -0.000000   1.000000  0.656107   0.550   0.358  -0.000
   9     11.1717817    90107.    110.98  0.274131   0.980180  -0.198111   0.000000  0.113160   0.095   0.061   0.000
  10     11.5333151    93023.    107.50  0.168534   0.066121  -0.997812   0.000000  0.151709   0.066   0.136  -0.000
 
 Polarizability (au  ) xx=   72.01 xy=   11.09 yy=    5.22 xz=    0.00 yz=    0.00 zz=    0.27
 Polarizability (A**3) xx=   10.67 xy=    1.64 yy=    0.77 xz=    0.00 yz=    0.00 zz=    0.04
 
 
 Major CI contributions to CI states
 
State    1  0.0000     CI coeff  CI percent
    Config       1   1.00000000  1.00000000
 Total coeff printed             1.00000000
  
State    2  5.9014     CI coeff  CI percent
    Config       2  -0.99542058  0.99086212
    Config       9   0.05984332  0.00358122
    Config      10   0.07379150  0.00544519
 Total coeff printed             0.99988853
  
State    3  6.7752     CI coeff  CI percent
    Config       3  -0.99956458  0.99912934
 Total coeff printed             0.99912934
  
State    4  6.9973     CI coeff  CI percent
    Config       4  -0.94657588  0.89600590
    Config       6   0.32227066  0.10385838
 Total coeff printed             0.99986428
  
State    5  7.3004     CI coeff  CI percent
    Config       5  -0.99955103  0.99910226
 Total coeff printed             0.99910226
  
State    6  9.3880     CI coeff  CI percent
    Config       4   0.32214992  0.10378057
    Config       6   0.94653834  0.89593484
 Total coeff printed             0.99971541
  
State    7  9.5387     CI coeff  CI percent
    Config       7   0.99972247  0.99944501
 Total coeff printed             0.99944501
  
State    8 10.8961     CI coeff  CI percent
    Config       8   0.99973687  0.99947380
 Total coeff printed             0.99947380
  
State    9 11.1718     CI coeff  CI percent
    Config       2  -0.08884256  0.00789300
    Config       9  -0.86202404  0.74308544
    Config      10  -0.49897516  0.24897622
 Total coeff printed             0.99995466
  
State   10 11.5333     CI coeff  CI percent
    Config       9  -0.50331773  0.25332873
    Config      10   0.86328707  0.74526456
 Total coeff printed             0.99859330
  

 **********************
 *                    *
 * JOB ENDED NORMALLY *
 *                    *
 **********************



 TOTAL JOB TIME:             0.05 SECONDS

 == MOPAC DONE ==
