 *******************************************************************************
 ** Site#: 37037        For non-commercial use only           Version 21.158W **
 *******************************************************************************
 ** Cite this program as: MOPAC2016, Version: 21.158W, James J. P. Stewart,   **
 ** Stewart Computational Chemistry, web: HTTP://OpenMOPAC.net. Days left: 361**
 *******************************************************************************
 **                                                                           **
 **                                MOPAC2016                                  **
 **                                                                           **
 *******************************************************************************

                              PM7 CALCULATION RESULTS

 *******************************************************************************
 *  CALCULATION DONE:                                Fri Jun 11 09:39:59 2021  *
 *  1SCF       - DO 1 SCF AND THEN STOP 
 *  T=         - A TIME OF 172800.0 SECONDS REQUESTED
 *  DUMP=N     - RESTART FILE WRITTEN EVERY 7200.0 SECONDS REQUESTED
 *  HTML       - WRITE HTML SCRIPT TO READ PDB FILE USING JSMOL
 *******************************************************************************
 1SCF HTML


  ATOM               CHEMICAL                 BOND LENGTH      BOND ANGLE     TWIST ANGLE 
 NUMBER               SYMBOL                  (ANGSTROMS)      (DEGREES)       (DEGREES) 
   (I)                                           NA:I           NB:NA:I       NC:NB:NA:I       NA    NB    NC 
     1       C(HETATM    1  C1  HET A   1)    0.00000000       0.0000000       0.0000000   
     2       C(HETATM    2  C2  HET A   1)    1.52884000  *    0.0000000       0.0000000        1     0     0
     3       C(HETATM    3  C3  HET A   1)    1.53519300  *  111.1103540  *    0.0000000        2     1     0
     4       C(HETATM    4  C4  HET A   1)    1.52835900  *  110.8400580  *  178.7751770  *     3     2     1
     5       C(HETATM    5  C1  HET B   2)    5.52633500  *   95.5242590  * -102.6887690  *     4     3     2
     6       C(HETATM    6  C2  HET B   2)    1.52858500  *   37.0984400  *  152.6918300  *     5     4     3
     7       C(HETATM    7  C3  HET B   2)    1.53696000  *  110.9441240  *   92.4253810  *     6     5     4
     8       C(HETATM    8  C4  HET B   2)    1.46479800  *  112.7494920  * -177.9371370  *     7     6     5
     9       H(HETATM    9 1H1  HET A   1)    1.09553100  *  111.4569930  *  -61.4270910  *     1     2     3
    10       H(HETATM   10 2H1  HET A   1)    1.09554300  *  111.4855850  *  120.1850540  *     1     2     9
    11       H(HETATM   11 3H1  HET A   1)    1.09552000  *  111.1952250  *  119.8841150  *     1     2    10
    12       H(HETATM   12 1H2  HET A   1)    1.10630500  *  109.9996510  *  121.9361210  *     2     1     3
    13       H(HETATM   13 2H2  HET A   1)    1.10633100  *  109.9845000  *  116.2180610  *     2     1    12
    14       H(HETATM   14 1H3  HET A   1)    1.10609900  *  109.9386190  *  121.9079230  *     3     2     4
    15       H(HETATM   15 2H3  HET A   1)    1.10600000  *  110.0199230  *  116.1637510  *     3     2    14
    16       H(HETATM   16 1H4  HET A   1)    1.09600500  *  111.4259340  *   41.3952020  *     4     3     5
    17       H(HETATM   17 2H4  HET A   1)    1.09537900  *  111.4836730  *  120.1945920  *     4     3    16
    18       H(HETATM   18 3H4  HET B   2)    1.09571200  *  111.3576300  *  120.0916030  *     4     3    17
    19       H(HETATM   19 1H1  HET B   2)    1.09536200  *  140.7867250  *   48.8066600  *     5     4     6
    20       H(HETATM   20 2H1  HET B   2)    1.09575300  *   78.5209580  *  103.7893230  *     5     4    19
    21       H(HETATM   21 3H1  HET B   2)    1.09567300  *  107.3335730  *  104.9159850  *     5     4    20
    22       H(HETATM   22 1H2  HET B   2)    1.10658200  *  110.1298150  *  121.7456190  *     6     5     7
    23       H(HETATM   23 2H2  HET B   2)    1.10674400  *  110.0278790  *  116.4445270  *     6     5    22
    24       H(HETATM   24 1H3  HET B   2)    1.11451000  *  109.7223030  *  122.8234890  *     7     6     8
    25       H(HETATM   25 2H3  HET B   2)    1.11406600  *  109.6632500  *  114.2111210  *     7     6    24
    26       H(HETATM   26 1H4  HET B   2)    1.06400500  *  121.8560420  *    2.2495770  *     8     7     6
    27       H(HETATM   27 2H4  HET B   2)    1.06517400  *  120.6757630  * -179.8029240  *     8     7    26
 

 General Reference for PM7:
 "Optimization of Parameters for Semiempirical Methods VI: More Modifications to the 
 NDDO Approximations and Re-optimization of Parameters", J. J. P. Stewart, J. Mol. Mod., 1:32, 19 (2013)
 https://link.springer.com/article/10.1007/s00894-012-1667-x

           Empirical Formula: C8 H19  =    27 atoms



      MOLECULAR POINT GROUP   :   C1  


          UHF CALCULATION, NO. OF ALPHA ELECTRONS =   26
                           NO. OF BETA  ELECTRONS =   25

 -------------------------------------------------------------------------------
 1SCF HTML




     1SCF WAS SPECIFIED, SO BFGS WAS NOT USED                 
     SCF FIELD WAS ACHIEVED                                   


                              PM7 CALCULATION
                                                       MOPAC2016 (Version: 21.158W)
                                                       Fri Jun 11 09:39:59 2021
                                                       No. of days remaining = 361




          FINAL HEAT OF FORMATION =        -23.59880 KCAL/MOL =     -98.73738 KJ/MOL


          TOTAL ENERGY            =      -1238.99762 EV
          ELECTRONIC ENERGY       =      -6424.31662 EV  POINT GROUP:     C1  
          CORE-CORE REPULSION     =       5185.31900 EV
          COSMO AREA              =        215.18 SQUARE ANGSTROMS
          COSMO VOLUME            =        209.36 CUBIC ANGSTROMS

          IONIZATION POTENTIAL    =          9.053580 EV
          ALPHA SOMO LUMO (EV)    =         -9.054  4.098
          BETA  SOMO LUMO (EV)    =        -11.138  0.870
          NO. OF ALPHA ELECTRONS  =         26
          NO. OF BETA  ELECTRONS  =         25
          MOLECULAR WEIGHT        =        115.2381

          MOLECULAR DIMENSIONS (Angstroms)

            Atom       Atom       Distance
            H    25    H    11     9.18436
            H    21    H    17     6.10433
            H    14    H    22     3.36789


          SCF CALCULATIONS        =          1
 
          WALL-CLOCK TIME         =          0.078 SECONDS
          COMPUTATION TIME        =          0.109 SECONDS




  ATOM               CHEMICAL                 BOND LENGTH      BOND ANGLE     TWIST ANGLE 
 NUMBER               SYMBOL                  (ANGSTROMS)      (DEGREES)       (DEGREES) 
   (I)                                           NA:I           NB:NA:I       NC:NB:NA:I       NA    NB    NC 
     1       C(HETATM    1  C1  HET A   1)    0.00000000       0.0000000       0.0000000   
     2       C(HETATM    2  C2  HET A   1)    1.52884000  *    0.0000000       0.0000000        1     0     0
     3       C(HETATM    3  C3  HET A   1)    1.53519300  *  111.1103540  *    0.0000000        2     1     0
     4       C(HETATM    4  C4  HET A   1)    1.52835900  *  110.8400580  *  178.7751770  *     3     2     1
     5       C(HETATM    5  C1  HET B   2)    5.52633500  *   95.5242590  * -102.6887690  *     4     3     2
     6       C(HETATM    6  C2  HET B   2)    1.52858500  *   37.0984400  *  152.6918300  *     5     4     3
     7       C(HETATM    7  C3  HET B   2)    1.53696000  *  110.9441240  *   92.4253810  *     6     5     4
     8       C(HETATM    8  C4  HET B   2)    1.46479800  *  112.7494920  * -177.9371370  *     7     6     5
     9       H(HETATM    9 1H1  HET A   1)    1.09553100  *  111.4569930  *  -61.4270910  *     1     2     3
    10       H(HETATM   10 2H1  HET A   1)    1.09554300  *  111.4855850  *  120.1850540  *     1     2     9
    11       H(HETATM   11 3H1  HET A   1)    1.09552000  *  111.1952250  *  119.8841150  *     1     2    10
    12       H(HETATM   12 1H2  HET A   1)    1.10630500  *  109.9996510  *  121.9361210  *     2     1     3
    13       H(HETATM   13 2H2  HET A   1)    1.10633100  *  109.9845000  *  116.2180610  *     2     1    12
    14       H(HETATM   14 1H3  HET A   1)    1.10609900  *  109.9386190  *  121.9079230  *     3     2     4
    15       H(HETATM   15 2H3  HET A   1)    1.10600000  *  110.0199230  *  116.1637510  *     3     2    14
    16       H(HETATM   16 1H4  HET A   1)    1.09600500  *  111.4259340  *   41.3952020  *     4     3     5
    17       H(HETATM   17 2H4  HET A   1)    1.09537900  *  111.4836730  *  120.1945920  *     4     3    16
    18       H(HETATM   18 3H4  HET B   2)    1.09571200  *  111.3576300  *  120.0916030  *     4     3    17
    19       H(HETATM   19 1H1  HET B   2)    1.09536200  *  140.7867250  *   48.8066600  *     5     4     6
    20       H(HETATM   20 2H1  HET B   2)    1.09575300  *   78.5209580  *  103.7893230  *     5     4    19
    21       H(HETATM   21 3H1  HET B   2)    1.09567300  *  107.3335730  *  104.9159850  *     5     4    20
    22       H(HETATM   22 1H2  HET B   2)    1.10658200  *  110.1298150  *  121.7456190  *     6     5     7
    23       H(HETATM   23 2H2  HET B   2)    1.10674400  *  110.0278790  *  116.4445270  *     6     5    22
    24       H(HETATM   24 1H3  HET B   2)    1.11451000  *  109.7223030  *  122.8234890  *     7     6     8
    25       H(HETATM   25 2H3  HET B   2)    1.11406600  *  109.6632500  *  114.2111210  *     7     6    24
    26       H(HETATM   26 1H4  HET B   2)    1.06400500  *  121.8560420  *    2.2495770  *     8     7     6
    27       H(HETATM   27 2H4  HET B   2)    1.06517400  *  120.6757630  * -179.8029240  *     8     7    26

                             CARTESIAN COORDINATES

   1    C        0.000000000     0.000000000     0.000000000
   2    C        1.528840000     0.000000000     0.000000000
   3    C        2.081763397     1.432163840     0.000000000
   4    C        3.609800934     1.425071292     0.030532205
   5    C        4.040475321     2.672116730     5.397074461
   6    C        4.758369184     1.963359533     4.248656532
   7    C        5.729418597     2.917644850     3.535460476
   8    C        6.404219576     2.291679827     2.395967339
   9    H       -0.400748241     0.487652033     0.895424209
  10    H       -0.401261393     0.528723303    -0.871582141
  11    H       -0.396081826    -1.021125533    -0.024205422
  12    H        1.907212262    -0.549914950     0.882235077
  13    H        1.906946231    -0.548589456    -0.883206413
  14    H        1.722627358     1.975147072    -0.894229005
  15    H        1.687975081     1.990070373     0.870004059
  16    H        3.989891866     0.940068801     0.936915362
  17    H        4.025764416     0.890038092    -0.830030989
  18    H        4.014010816     2.443346804     0.012808237
  19    H        4.751245274     3.093707716     6.116021625
  20    H        3.412994115     3.492945525     5.032133283
  21    H        3.391254043     1.980924007     5.945949378
  22    H        5.310531684     1.083450372     4.629970269
  23    H        4.019200994     1.568878814     3.525539924
  24    H        5.182293318     3.828247596     3.198430644
  25    H        6.482600630     3.298481292     4.262662980
  26    H        6.192486483     1.292571341     2.097541519
  27    H        7.133708574     2.827921708     1.834820214


           Empirical Formula: C8 H19  =    27 atoms



      MOLECULAR POINT GROUP   :   C1  


          ALPHA EIGENVALUES  
 -28.72186 -28.59995 -25.54518 -25.23630 -21.47603 -21.14992 -19.99019 -19.84913
 -16.20433 -16.02203 -15.19191 -14.80573 -14.74530 -14.42217 -14.09220 -13.53198
 -13.15325 -12.84667 -12.33370 -12.12708 -11.96845 -11.66383 -11.57570 -11.45701
 -11.13855  -9.05358   4.09786   4.15512   4.43875   4.58515   4.87124   4.98167
   5.36150   5.49209   5.74896   5.81017   5.84358   5.90633   6.02094   6.11272
   6.15327   6.29987   6.33073   6.48043   6.60832   6.66562   6.75659   6.78973
   7.02099   7.09103   7.18233


           BETA EIGENVALUES 
 -28.69550 -28.55742 -25.54138 -25.09253 -21.47281 -21.00327 -19.91786 -19.76375
 -16.19695 -15.91101 -15.06015 -14.74513 -14.70323 -14.42135 -14.09133 -13.28632
 -13.03838 -12.84502 -12.24650 -12.12022 -11.96762 -11.62192 -11.48060 -11.44499
 -11.13765   0.87002   4.12720   4.15514   4.47352   4.58518   4.87128   5.23166
   5.41641   5.49482   5.80199   5.81250   5.84698   5.90663   6.02207   6.11635
   6.16502   6.32710   6.44749   6.63010   6.67170   6.75650   6.78962   6.82580
   7.02300   7.09201   7.18600


              NET ATOMIC CHARGES AND DIPOLE CONTRIBUTIONS

  ATOM NO.                 TYPE                        CHARGE      No. of ELECS.   s-Pop       p-Pop       
    1          C(HETATM    1  C1  HET A   1)          -0.442463        4.4425     1.05223     3.39023
    2          C(HETATM    2  C2  HET A   1)          -0.249175        4.2492     1.05559     3.19358
    3          C(HETATM    3  C3  HET A   1)          -0.249676        4.2497     1.05545     3.19422
    4          C(HETATM    4  C4  HET A   1)          -0.441788        4.4418     1.05230     3.38949
    5          C(HETATM    5  C1  HET B   2)          -0.442104        4.4421     1.05227     3.38984
    6          C(HETATM    6  C2  HET B   2)          -0.244693        4.2447     1.05582     3.18888
    7          C(HETATM    7  C3  HET B   2)          -0.271858        4.2719     1.04912     3.22274
    8          C(HETATM    8  C4  HET B   2)          -0.314750        4.3147     1.12028     3.19447
    9          H(HETATM    9 1H1  HET A   1)           0.142221        0.8578     0.85778
   10          H(HETATM   10 2H1  HET A   1)           0.141724        0.8583     0.85828
   11          H(HETATM   11 3H1  HET A   1)           0.139533        0.8605     0.86047
   12          H(HETATM   12 1H2  HET A   1)           0.133935        0.8661     0.86607
   13          H(HETATM   13 2H2  HET A   1)           0.132445        0.8676     0.86755
   14          H(HETATM   14 1H3  HET A   1)           0.132956        0.8670     0.86704
   15          H(HETATM   15 2H3  HET A   1)           0.133464        0.8665     0.86654
   16          H(HETATM   16 1H4  HET A   1)           0.142393        0.8576     0.85761
   17          H(HETATM   17 2H4  HET A   1)           0.142118        0.8579     0.85788
   18          H(HETATM   18 3H4  HET B   2)           0.142309        0.8577     0.85769
   19          H(HETATM   19 1H1  HET B   2)           0.141274        0.8587     0.85873
   20          H(HETATM   20 2H1  HET B   2)           0.142658        0.8573     0.85734
   21          H(HETATM   21 3H1  HET B   2)           0.141915        0.8581     0.85809
   22          H(HETATM   22 1H2  HET B   2)           0.135569        0.8644     0.86443
   23          H(HETATM   23 2H2  HET B   2)           0.137600        0.8624     0.86240
   24          H(HETATM   24 1H3  HET B   2)           0.153913        0.8461     0.84609
   25          H(HETATM   25 2H3  HET B   2)           0.151778        0.8482     0.84822
   26          H(HETATM   26 1H4  HET B   2)           0.136407        0.8636     0.86359
   27          H(HETATM   27 2H4  HET B   2)           0.132294        0.8677     0.86771

          NET CHARGE ON RESIDUES

      Residue         Charge  Anion or
                              Cation?
      HET A   1       +0.000
      HET B   2       +0.000
 


 DIPOLE           X         Y         Z       TOTAL
 POINT-CHG.    -0.156     0.230     0.328     0.430
 HYBRID        -0.019     0.057     0.050     0.078
 SUM           -0.174     0.287     0.378     0.506


          ATOMIC ORBITAL ELECTRON POPULATIONS

                   Atom                  s        px        py        pz   
   C(HETATM    1  C1  HET A   1)   1.05223   1.04684   1.16987   1.17352
   C(HETATM    2  C2  HET A   1)   1.05559   0.99492   1.03966   1.15901
   C(HETATM    3  C3  HET A   1)   1.05545   0.99751   1.03748   1.15923
   C(HETATM    4  C4  HET A   1)   1.05230   1.04346   1.17270   1.17333
   C(HETATM    5  C1  HET B   2)   1.05227   1.14353   1.14668   1.09962
   C(HETATM    6  C2  HET B   2)   1.05582   1.07549   1.06235   1.05103
   C(HETATM    7  C3  HET B   2)   1.04912   1.08425   1.07952   1.05897
   C(HETATM    8  C4  HET B   2)   1.12028   1.06015   1.10303   1.03128
   H(HETATM    9 1H1  HET A   1)   0.85778
   H(HETATM   10 2H1  HET A   1)   0.85828
   H(HETATM   11 3H1  HET A   1)   0.86047
   H(HETATM   12 1H2  HET A   1)   0.86607
   H(HETATM   13 2H2  HET A   1)   0.86755
   H(HETATM   14 1H3  HET A   1)   0.86704
   H(HETATM   15 2H3  HET A   1)   0.86654
   H(HETATM   16 1H4  HET A   1)   0.85761
   H(HETATM   17 2H4  HET A   1)   0.85788
   H(HETATM   18 3H4  HET B   2)   0.85769
   H(HETATM   19 1H1  HET B   2)   0.85873
   H(HETATM   20 2H1  HET B   2)   0.85734
   H(HETATM   21 3H1  HET B   2)   0.85809
   H(HETATM   22 1H2  HET B   2)   0.86443
   H(HETATM   23 2H2  HET B   2)   0.86240
   H(HETATM   24 1H3  HET B   2)   0.84609
   H(HETATM   25 2H3  HET B   2)   0.84822
   H(HETATM   26 1H4  HET B   2)   0.86359
   H(HETATM   27 2H4  HET B   2)   0.86771


                    (SZ)    =    0.500000
                    (S**2)  =    0.753356


          ATOMIC ORBITAL SPIN POPULATIONS

    Atom   Total    s     px     py     pz   
         Atomic
    1  C -0.0000 -0.000 -0.000  0.000  0.000
    2  C  0.0000 -0.000  0.000  0.000  0.000
    3  C  0.0000 -0.000  0.000  0.000  0.000
    4  C  0.0002  0.000  0.000  0.000  0.000
    5  C -0.0008 -0.000 -0.000 -0.000 -0.000
    6  C  0.0026  0.000  0.001  0.001  0.001
    7  C -0.0449 -0.007 -0.007 -0.013 -0.018
    8  C  1.0365  0.026  0.504  0.135  0.372
    9  H  0.0000  0.000
   10  H  0.0000  0.000
   11  H  0.0000  0.000
   12  H -0.0000 -0.000
   13  H -0.0000 -0.000
   14  H -0.0000 -0.000
   15  H -0.0000 -0.000
   16  H -0.0000 -0.000
   17  H -0.0000 -0.000
   18  H -0.0000 -0.000
   19  H  0.0000  0.000
   20  H  0.0000  0.000
   21  H  0.0000  0.000
   22  H -0.0002 -0.000
   23  H -0.0002 -0.000
   24  H  0.0341  0.034
   25  H  0.0314  0.031
   26  H -0.0292 -0.029
   27  H -0.0295 -0.030

 **********************
 *                    *
 * JOB ENDED NORMALLY *
 *                    *
 **********************



 TOTAL JOB TIME:             0.11 SECONDS

 == MOPAC DONE ==
