 *******************************************************************************
 ** Site#: 9602  E-mail support:    MrMOPAC@ATT.net    Version 18.053W 64BITS **
 *******************************************************************************
 ** Cite this program as: MOPAC2016, Version: 18.053W, James J. P. Stewart,   **
 ** Stewart Computational Chemistry, web: HTTP://OpenMOPAC.net. Days left: 173**
 *******************************************************************************
 **                                                                           **
 **                                MOPAC2016                                  **
 **                                                                           **
 *******************************************************************************

                              PM7 CALCULATION RESULTS


 *******************************************************************************
 *  CALCULATION DONE:                                Fri Feb 23 15:07:51 2018  *
 *  XYZ        - CARTESIAN COORDINATE SYSTEM TO BE USED
 *  TS         - USE EF ROUTINE FOR TS SEARCH
 *  T=         - A TIME OF 172800.0 SECONDS REQUESTED
 *  DUMP=N     - RESTART FILE WRITTEN EVERY  7200.000 SECONDS
 *******************************************************************************
  TS xyz
 Narcissistic reaction: Butane + butyl radical <=> butyl radical + butane
 Refine transition state from a SADDLE calculation
   ATOM                 CHEMICAL                   X               Y               Z
  NUMBER                 SYMBOL               (ANGSTROMS)     (ANGSTROMS)     (ANGSTROMS)
 
     1       C(HETATM    1  C1  HET A   1)    0.00000000  *   0.00000000  *   0.00000000  *
     2       C(HETATM    2  C2  HET A   1)    1.52841358  *   0.00000000  *   0.00000000  *
     3       C(HETATM    3  C3  HET A   1)    2.11733880  *   1.42423649  *   0.00000000  *
     4       C(HETATM    4  C4  HET A   1)    3.62315178  *   1.35965426  *   0.00900649  *
     5       C(HETATM    5  C1  HET B   2)    3.72585059  *   3.38919390  *   4.86476648  *
     6       C(HETATM    6  C2  HET B   2)    4.26538948  *   2.59957632  *   3.67339279  *
     7       C(HETATM    7  C3  HET B   2)    4.98323593  *   3.51251708  *   2.67048805  *
     8       C(HETATM    8  C4  HET B   2)    5.34928270  *   2.77416652  *   1.42117221  *
     9       H(HETATM    9 1H1  HET A   1)   -0.40449351  *   0.55937033  *   0.85002364  *
    10       H(HETATM   10 2H1  HET A   1)   -0.40846224  *   0.44305836  *  -0.91475081  *
    11       H(HETATM   11 3H1  HET A   1)   -0.39232437  *  -1.02250780  *   0.06752126  *
    12       H(HETATM   12 1H2  HET A   1)    1.89857424  *  -0.55206204  *   0.88458299  *
    13       H(HETATM   13 2H2  HET A   1)    1.90207081  *  -0.55505207  *  -0.88219529  *
    14       H(HETATM   14 1H3  HET A   1)    1.74784965  *   1.97568495  *  -0.88806771  *
    15       H(HETATM   15 2H3  HET A   1)    1.73861214  *   1.98574826  *   0.87607566  *
    16       H(HETATM   16 1H4  HET A   1)    4.09784485  *   1.58302803  *  -0.93834705  *
    17       H(HETATM   17 2H4  HET A   1)    4.03092454  *   0.47051627  *   0.47716828  *
    18       H(HETATM   18 3H4  HET B   2)    5.88899843  *   1.85028865  *   1.56365850  *
    19       H(HETATM   19 1H1  HET B   2)    4.52702926  *   3.87392450  *   5.43146500  *
    20       H(HETATM   20 2H1  HET B   2)    3.02870118  *   4.17088547  *   4.54306226  *
    21       H(HETATM   21 3H1  HET B   2)    3.18558173  *   2.73409116  *   5.55807795  *
    22       H(HETATM   22 1H2  HET B   2)    4.95654536  *   1.80853746  *   4.02279232  *
    23       H(HETATM   23 2H2  HET B   2)    3.43471020  *   2.07089636  *   3.16461704  *
    24       H(HETATM   24 1H3  HET B   2)    4.35397097  *   4.39425980  *   2.43965235  *
    25       H(HETATM   25 2H3  HET B   2)    5.90634775  *   3.92538728  *   3.13891822  *
    26       H(HETATM   26 1H4  HET B   2)    4.18306247  *   2.30388250  *   0.80482229  *
    27       H(HETATM   27 2H4  HET B   2)    5.75995840  *   3.37932299  *   0.62471911  *
 

 General Reference for PM7:
 "Optimization of Parameters for Semiempirical Methods VI: More Modifications to the 
 NDDO Approximations and Re-optimization of Parameters", J. J. P. Stewart, J. Mol. Mod., 1:32, 19 (2013)
 http://www.springerlink.com/openurl.asp?genre=article&id=doi:10.1007/s00894-012-1667-x

           Empirical Formula: C8 H19  =    27 atoms



      MOLECULAR POINT GROUP   :   C1  


          UHF CALCULATION, NO. OF ALPHA ELECTRONS =   26
                           NO. OF BETA  ELECTRONS =   25

          Transition state refinement using EF

          HESSIAN CALCULATED NUMERICALLY

 CYCLE:     1 TIME:   0.656 TIME LEFT:  2.00D  GRAD.:    19.438 HEAT:  2.409223
 CYCLE:     2 TIME:   0.016 TIME LEFT:  2.00D  GRAD.:     3.293 HEAT:  2.205412
 CYCLE:     3 TIME:   0.016 TIME LEFT:  2.00D  GRAD.:     2.932 HEAT:  1.967541
 CYCLE:     4 TIME:   0.016 TIME LEFT:  2.00D  GRAD.:     3.384 HEAT:  1.534724
 CYCLE:     5 TIME:   0.000 TIME LEFT:  2.00D  GRAD.:     4.963 HEAT:  1.075669
 CYCLE:     6 TIME:   0.016 TIME LEFT:  2.00D  GRAD.:     4.386 HEAT: 0.7304334
 CYCLE:     7 TIME:   0.016 TIME LEFT:  2.00D  GRAD.:     7.903 HEAT: 0.4967799
 CYCLE:     8 TIME:   0.016 TIME LEFT:  2.00D  GRAD.:    16.929 HEAT: 0.4804537
 CYCLE:     9 TIME:   0.016 TIME LEFT:  2.00D  GRAD.:    10.827 HEAT: 0.2633610
 CYCLE:    10 TIME:   0.000 TIME LEFT:  2.00D  GRAD.:     7.787 HEAT: 0.1351866
 CYCLE:    11 TIME:   0.016 TIME LEFT:  2.00D  GRAD.:     8.763 HEAT: 0.5871247E-01
 CYCLE:    12 TIME:   0.016 TIME LEFT:  2.00D  GRAD.:    11.731 HEAT: 0.3953033E-01
 CYCLE:    13 TIME:   0.000 TIME LEFT:  2.00D  GRAD.:     6.125 HEAT:-0.6389173E-01
 CYCLE:    14 TIME:   0.016 TIME LEFT:  2.00D  GRAD.:     6.203 HEAT:-0.1006543
 CYCLE:    15 TIME:   0.000 TIME LEFT:  2.00D  GRAD.:     8.262 HEAT:-0.1199784
 CYCLE:    16 TIME:   0.016 TIME LEFT:  2.00D  GRAD.:     8.191 HEAT:-0.1592383
 CYCLE:    17 TIME:   0.016 TIME LEFT:  2.00D  GRAD.:     6.901 HEAT:-0.1974974
 CYCLE:    18 TIME:   0.000 TIME LEFT:  2.00D  GRAD.:     6.349 HEAT:-0.2345049
 CYCLE:    19 TIME:   0.016 TIME LEFT:  2.00D  GRAD.:     5.991 HEAT:-0.2673718
 CYCLE:    20 TIME:   0.000 TIME LEFT:  2.00D  GRAD.:     6.552 HEAT:-0.2895789
 CYCLE:    21 TIME:   0.016 TIME LEFT:  2.00D  GRAD.:     7.182 HEAT:-0.3123816
 CYCLE:    22 TIME:   0.000 TIME LEFT:  2.00D  GRAD.:     6.905 HEAT:-0.3482128
 CYCLE:    23 TIME:   0.016 TIME LEFT:  2.00D  GRAD.:     5.442 HEAT:-0.3726599
 CYCLE:    24 TIME:   0.016 TIME LEFT:  2.00D  GRAD.:     6.187 HEAT:-0.3960300
 CYCLE:    25 TIME:   0.000 TIME LEFT:  2.00D  GRAD.:     8.034 HEAT:-0.4054983
 CYCLE:    26 TIME:   0.016 TIME LEFT:  2.00D  GRAD.:     4.251 HEAT:-0.4301686
 CYCLE:    27 TIME:   0.000 TIME LEFT:  2.00D  GRAD.:     3.927 HEAT:-0.4542537
 CYCLE:    28 TIME:   0.016 TIME LEFT:  2.00D  GRAD.:     3.968 HEAT:-0.4583408
 CYCLE:    29 TIME:   0.016 TIME LEFT:  2.00D  GRAD.:     3.922 HEAT:-0.4586317
 CYCLE:    30 TIME:   0.000 TIME LEFT:  2.00D  GRAD.:     2.753 HEAT:-0.4744674
 CYCLE:    31 TIME:   0.016 TIME LEFT:  2.00D  GRAD.:     1.802 HEAT:-0.4777480
 CYCLE:    32 TIME:   0.016 TIME LEFT:  2.00D  GRAD.:     1.166 HEAT:-0.4827019
 CYCLE:    33 TIME:   0.000 TIME LEFT:  2.00D  GRAD.:     1.164 HEAT:-0.4883742
 CYCLE:    34 TIME:   0.016 TIME LEFT:  2.00D  GRAD.:     1.663 HEAT:-0.4925275
 CYCLE:    35 TIME:   0.016 TIME LEFT:  2.00D  GRAD.:     1.590 HEAT:-0.4964683
 CYCLE:    36 TIME:   0.016 TIME LEFT:  2.00D  GRAD.:     1.192 HEAT:-0.5013811
 CYCLE:    37 TIME:   0.016 TIME LEFT:  2.00D  GRAD.:     3.521 HEAT:-0.5036248
 CYCLE:    38 TIME:   0.000 TIME LEFT:  2.00D  GRAD.:     2.322 HEAT:-0.5292750
 CYCLE:    39 TIME:   0.031 TIME LEFT:  2.00D  GRAD.:     4.727 HEAT:-0.5317869
 CYCLE:    40 TIME:   0.016 TIME LEFT:  2.00D  GRAD.:     5.279 HEAT:-0.5376844
 CYCLE:    41 TIME:   0.000 TIME LEFT:  2.00D  GRAD.:     4.468 HEAT:-0.5482887
 CYCLE:    42 TIME:   0.016 TIME LEFT:  2.00D  GRAD.:     3.204 HEAT:-0.5584214
 CYCLE:    43 TIME:   0.016 TIME LEFT:  2.00D  GRAD.:     3.899 HEAT:-0.5615778
 CYCLE:    44 TIME:   0.016 TIME LEFT:  2.00D  GRAD.:     4.509 HEAT:-0.5648396
 CYCLE:    45 TIME:   0.016 TIME LEFT:  2.00D  GRAD.:     2.948 HEAT:-0.5731467
 CYCLE:    46 TIME:   0.000 TIME LEFT:  2.00D  GRAD.:     2.351 HEAT:-0.5770408
 CYCLE:    47 TIME:   0.016 TIME LEFT:  2.00D  GRAD.:     2.165 HEAT:-0.5797617
 CYCLE:    48 TIME:   0.016 TIME LEFT:  2.00D  GRAD.:     2.064 HEAT:-0.5823839
 CYCLE:    49 TIME:   0.016 TIME LEFT:  2.00D  GRAD.:     1.932 HEAT:-0.5848512
 CYCLE:    50 TIME:   0.016 TIME LEFT:  2.00D  GRAD.:     0.848 HEAT:-0.5886576

     GRADIENT =  0.84836  IS LESS THAN CUTOFF =  1.00000



 -------------------------------------------------------------------------------
 TS xyz
 Narcissistic reaction: Butane + butyl radical <=> butyl radical + butane
 Refine transition state from a SADDLE calculation


     GEOMETRY OPTIMISED USING EIGENVECTOR FOLLOWING (TS).     
     SCF FIELD WAS ACHIEVED                                   


                              PM7 CALCULATION
                                                       MOPAC2016 (Version: 18.053W)
                                                       Fri Feb 23 15:07:52 2018
                                                       No. of days remaining = 173




          FINAL HEAT OF FORMATION =         -0.58866 KCAL/MOL =      -2.46294 KJ/MOL


          TOTAL ENERGY            =      -1237.98793 EV
          ELECTRONIC ENERGY       =      -6776.53495 EV  POINT GROUP:     C1  
          CORE-CORE REPULSION     =       5538.54701 EV
          COSMO AREA              =        203.22 SQUARE ANGSTROMS
          COSMO VOLUME            =        201.29 CUBIC ANGSTROMS

          GRADIENT NORM           =          0.84836
          IONIZATION POTENTIAL    =          8.303578 EV
          ALPHA SOMO LUMO (EV)    =         -8.304  4.147
          BETA  SOMO LUMO (EV)    =        -10.773  0.043
          NO. OF ALPHA ELECTRONS  =         26
          NO. OF BETA  ELECTRONS  =         25
          MOLECULAR WEIGHT        =        115.2381

          MOLECULAR DIMENSIONS (Angstroms)

            Atom       Atom       Distance
            H    19    H    11     8.16454
            H    27    H    21     5.45504
            H    17    H    10     3.82628


          SCF CALCULATIONS        =        133
 
          WALL-CLOCK TIME         =          1.266 SECONDS
          COMPUTATION TIME        =          4.836 SECONDS




   ATOM                 CHEMICAL                   X               Y               Z
  NUMBER                 SYMBOL               (ANGSTROMS)     (ANGSTROMS)     (ANGSTROMS)
 
     1       C(HETATM    1  C1  HET A   1)    0.05101527  *   0.51443209  *   0.16251219  *
     2       C(HETATM    2  C2  HET A   1)    1.52458692  *   0.13229040  *   0.03013020  *
     3       C(HETATM    3  C3  HET A   1)    2.43372195  *   1.32351291  *   0.37891638  *
     4       C(HETATM    4  C4  HET A   1)    3.87766453  *   0.93446965  *   0.24644929  *
     5       C(HETATM    5  C1  HET B   2)    3.51178123  *   3.09570255  *   4.65359836  *
     6       C(HETATM    6  C2  HET B   2)    4.33176481  *   2.50279622  *   3.50845520  *
     7       C(HETATM    7  C3  HET B   2)    4.54798206  *   3.53702646  *   2.39302335  *
     8       C(HETATM    8  C4  HET B   2)    5.33872036  *   2.96275844  *   1.25430284  *
     9       H(HETATM    9 1H1  HET A   1)   -0.18897445  *   0.83912806  *   1.18110301  *
    10       H(HETATM   10 2H1  HET A   1)   -0.21308000  *   1.33363859  *  -0.51598747  *
    11       H(HETATM   11 3H1  HET A   1)   -0.60136013  *  -0.33278760  *  -0.07507413  *
    12       H(HETATM   12 1H2  HET A   1)    1.75607207  *  -0.72327250  *   0.69183355  *
    13       H(HETATM   13 2H2  HET A   1)    1.73761249  *  -0.21337264  *  -0.99881176  *
    14       H(HETATM   14 1H3  HET A   1)    2.19644265  *   2.18201634  *  -0.27884126  *
    15       H(HETATM   15 2H3  HET A   1)    2.21524585  *   1.67017957  *   1.40915590  *
    16       H(HETATM   16 1H4  HET A   1)    4.25366832  *   0.84997594  *  -0.76310423  *
    17       H(HETATM   17 2H4  HET A   1)    4.20704805  *   0.12499875  *   0.88297968  *
    18       H(HETATM   18 3H4  HET B   2)    6.24905051  *   2.44526862  *   1.52297316  *
    19       H(HETATM   19 1H1  HET B   2)    4.02540148  *   3.94625739  *   5.11554773  *
    20       H(HETATM   20 2H1  HET B   2)    2.53477545  *   3.44928113  *   4.30653244  *
    21       H(HETATM   21 3H1  HET B   2)    3.33337404  *   2.35270781  *   5.43935163  *
    22       H(HETATM   22 1H2  HET B   2)    5.30817202  *   2.14452900  *   3.88551538  *
    23       H(HETATM   23 2H2  HET B   2)    3.82115836  *   1.61005479  *   3.09874020  *
    24       H(HETATM   24 1H3  HET B   2)    3.56855746  *   3.91305782  *   2.03570250  *
    25       H(HETATM   25 2H3  HET B   2)    5.07187520  *   4.42581689  *   2.80396432  *
    26       H(HETATM   26 1H4  HET B   2)    4.60954285  *   1.96424113  *   0.72295787  *
    27       H(HETATM   27 2H4  HET B   2)    5.46608724  *   3.61208625  *   0.39874316  *

                             CARTESIAN COORDINATES

   1    C        0.051015273     0.514432091     0.162512188
   2    C        1.524586921     0.132290401     0.030130205
   3    C        2.433721952     1.323512908     0.378916377
   4    C        3.877664530     0.934469650     0.246449292
   5    C        3.511781229     3.095702555     4.653598361
   6    C        4.331764808     2.502796217     3.508455197
   7    C        4.547982059     3.537026457     2.393023354
   8    C        5.338720363     2.962758436     1.254302837
   9    H       -0.188974452     0.839128063     1.181103011
  10    H       -0.213079998     1.333638587    -0.515987474
  11    H       -0.601360131    -0.332787601    -0.075074132
  12    H        1.756072068    -0.723272501     0.691833551
  13    H        1.737612493    -0.213372636    -0.998811764
  14    H        2.196442649     2.182016345    -0.278841256
  15    H        2.215245851     1.670179565     1.409155903
  16    H        4.253668322     0.849975944    -0.763104230
  17    H        4.207048052     0.124998747     0.882979676
  18    H        6.249050512     2.445268621     1.522973157
  19    H        4.025401481     3.946257385     5.115547728
  20    H        2.534775450     3.449281129     4.306532435
  21    H        3.333374044     2.352707806     5.439351634
  22    H        5.308172025     2.144529000     3.885515375
  23    H        3.821158357     1.610054791     3.098740202
  24    H        3.568557464     3.913057816     2.035702499
  25    H        5.071875197     4.425816892     2.803964321
  26    H        4.609542847     1.964241134     0.722957868
  27    H        5.466087239     3.612086253     0.398743164


           Empirical Formula: C8 H19  =    27 atoms



      MOLECULAR POINT GROUP   :   C1  


          ALPHA EIGENVALUES  
 -29.11906 -28.30887 -25.92923 -24.81685 -21.76543 -20.86024 -19.95148 -19.64821
 -16.43657 -16.07974 -14.91572 -14.72353 -14.65202 -14.41387 -14.23070 -13.64579
 -12.94214 -12.53372 -12.23501 -12.17220 -12.06700 -11.79087 -11.49925 -11.23121
 -11.13250  -8.30358   4.14727   4.16049   4.53248   4.59084   4.89994   4.95653
   5.36296   5.47696   5.57076   5.81096   5.86702   5.90723   5.91996   6.13998
   6.15453   6.24530   6.37324   6.62696   6.69232   6.71689   6.73369   6.85371
   6.91103   7.07633   7.08254


           BETA EIGENVALUES 
 -29.07163 -28.28601 -25.85217 -24.74942 -21.66723 -20.77929 -19.92681 -19.55415
 -16.37501 -16.00031 -14.81679 -14.66401 -14.57757 -14.23393 -14.09762 -13.52831
 -12.80042 -12.32764 -12.17235 -12.11454 -11.99276 -11.65722 -11.40382 -11.16292
 -10.77329   0.04313   4.19389   4.21257   4.55157   4.63251   5.00748   5.07285
   5.43296   5.50955   5.76289   5.82954   5.89659   5.91945   6.00451   6.17711
   6.20819   6.30376   6.44507   6.64816   6.72469   6.74685   6.77910   6.89198
   7.04770   7.08013   7.11595


              NET ATOMIC CHARGES AND DIPOLE CONTRIBUTIONS

  ATOM NO.                 TYPE                        CHARGE      No. of ELECS.   s-Pop       p-Pop       
    1          C(HETATM    1  C1  HET A   1)          -0.441026        4.4410     1.05219     3.38884
    2          C(HETATM    2  C2  HET A   1)          -0.244131        4.2441     1.05566     3.18847
    3          C(HETATM    3  C3  HET A   1)          -0.265354        4.2654     1.05356     3.21180
    4          C(HETATM    4  C4  HET A   1)          -0.393420        4.3934     1.09907     3.29435
    5          C(HETATM    5  C1  HET B   2)          -0.440863        4.4409     1.05215     3.38871
    6          C(HETATM    6  C2  HET B   2)          -0.250148        4.2501     1.05596     3.19419
    7          C(HETATM    7  C3  HET B   2)          -0.261805        4.2618     1.05269     3.20912
    8          C(HETATM    8  C4  HET B   2)          -0.395107        4.3951     1.09794     3.29717
    9          H(HETATM    9 1H1  HET A   1)           0.142812        0.8572     0.85719
   10          H(HETATM   10 2H1  HET A   1)           0.142097        0.8579     0.85790
   11          H(HETATM   11 3H1  HET A   1)           0.139518        0.8605     0.86048
   12          H(HETATM   12 1H2  HET A   1)           0.133743        0.8663     0.86626
   13          H(HETATM   13 2H2  HET A   1)           0.133950        0.8660     0.86605
   14          H(HETATM   14 1H3  HET A   1)           0.137394        0.8626     0.86261
   15          H(HETATM   15 2H3  HET A   1)           0.140409        0.8596     0.85959
   16          H(HETATM   16 1H4  HET A   1)           0.135443        0.8646     0.86456
   17          H(HETATM   17 2H4  HET A   1)           0.135340        0.8647     0.86466
   18          H(HETATM   18 3H4  HET B   2)           0.136812        0.8632     0.86319
   19          H(HETATM   19 1H1  HET B   2)           0.141346        0.8587     0.85865
   20          H(HETATM   20 2H1  HET B   2)           0.142043        0.8580     0.85796
   21          H(HETATM   21 3H1  HET B   2)           0.140667        0.8593     0.85933
   22          H(HETATM   22 1H2  HET B   2)           0.134061        0.8659     0.86594
   23          H(HETATM   23 2H2  HET B   2)           0.137829        0.8622     0.86217
   24          H(HETATM   24 1H3  HET B   2)           0.138247        0.8618     0.86175
   25          H(HETATM   25 2H3  HET B   2)           0.141152        0.8588     0.85885
   26          H(HETATM   26 1H4  HET B   2)           0.203617        0.7964     0.79638
   27          H(HETATM   27 2H4  HET B   2)           0.135375        0.8646     0.86462

          NET CHARGE ON RESIDUES

      Residue         Charge  Anion or
                              Cation?
      HET A   1       -0.103
      HET B   2       +0.103
 


 DIPOLE           X         Y         Z       TOTAL
 POINT-CHG.    -0.164     0.075     0.125     0.220
 HYBRID        -0.041     0.036     0.025     0.060
 SUM           -0.205     0.112     0.151     0.278


          ATOMIC ORBITAL ELECTRON POPULATIONS

                   Atom                  s        px        py        pz   
   C(HETATM    1  C1  HET A   1)   1.05219   1.05207   1.16404   1.17273
   C(HETATM    2  C2  HET A   1)   1.05566   0.97913   1.05853   1.15081
   C(HETATM    3  C3  HET A   1)   1.05356   0.99181   1.06305   1.15694
   C(HETATM    4  C4  HET A   1)   1.09907   1.03074   1.12256   1.14104
   C(HETATM    5  C1  HET B   2)   1.05215   1.13630   1.15368   1.09873
   C(HETATM    6  C2  HET B   2)   1.05596   1.11552   1.06663   1.01203
   C(HETATM    7  C3  HET B   2)   1.05269   1.12013   1.06859   1.02040
   C(HETATM    8  C4  HET B   2)   1.09794   1.10745   1.11529   1.07444
   H(HETATM    9 1H1  HET A   1)   0.85719
   H(HETATM   10 2H1  HET A   1)   0.85790
   H(HETATM   11 3H1  HET A   1)   0.86048
   H(HETATM   12 1H2  HET A   1)   0.86626
   H(HETATM   13 2H2  HET A   1)   0.86605
   H(HETATM   14 1H3  HET A   1)   0.86261
   H(HETATM   15 2H3  HET A   1)   0.85959
   H(HETATM   16 1H4  HET A   1)   0.86456
   H(HETATM   17 2H4  HET A   1)   0.86466
   H(HETATM   18 3H4  HET B   2)   0.86319
   H(HETATM   19 1H1  HET B   2)   0.85865
   H(HETATM   20 2H1  HET B   2)   0.85796
   H(HETATM   21 3H1  HET B   2)   0.85933
   H(HETATM   22 1H2  HET B   2)   0.86594
   H(HETATM   23 2H2  HET B   2)   0.86217
   H(HETATM   24 1H3  HET B   2)   0.86175
   H(HETATM   25 2H3  HET B   2)   0.85885
   H(HETATM   26 1H4  HET B   2)   0.79638
   H(HETATM   27 2H4  HET B   2)   0.86462


                    (SZ)    =    0.500000
                    (S**2)  =    0.772339


          ATOMIC ORBITAL SPIN POPULATIONS

    Atom   Total    s     px     py     pz   
         Atomic
    1  C  0.0001 -0.000  0.000 -0.000 -0.000
    2  C  0.0220  0.004  0.007  0.009  0.002
    3  C -0.0274 -0.003 -0.016 -0.006 -0.002
    4  C  0.5981  0.048  0.134  0.331  0.086
    5  C -0.0005 -0.000 -0.000 -0.000 -0.000
    6  C  0.0039  0.001  0.000  0.002  0.002
    7  C -0.0241 -0.003 -0.006 -0.006 -0.009
    8  C  0.5927  0.047  0.190  0.278  0.077
    9  H  0.0000  0.000
   10  H  0.0000  0.000
   11  H  0.0004  0.000
   12  H -0.0006 -0.001
   13  H -0.0007 -0.001
   14  H  0.0021  0.002
   15  H  0.0046  0.005
   16  H -0.0159 -0.016
   17  H -0.0164 -0.016
   18  H -0.0160 -0.016
   19  H  0.0000  0.000
   20  H  0.0000  0.000
   21  H  0.0000  0.000
   22  H -0.0001 -0.000
   23  H -0.0002 -0.000
   24  H  0.0045  0.005
   25  H  0.0182  0.018
   26  H -0.1286 -0.129
   27  H -0.0161 -0.016
 *******************************************************************************
 ** Site#: 9602  E-mail support:    MrMOPAC@ATT.net    Version 18.053W 64BITS **
 *******************************************************************************
 ** Cite this program as: MOPAC2016, Version: 18.053W, James J. P. Stewart,   **
 ** Stewart Computational Chemistry, web: HTTP://OpenMOPAC.net. Days left: 173**
 *******************************************************************************
 **                                                                           **
 **                                MOPAC2016                                  **
 **                                                                           **
 *******************************************************************************

                              PM7 CALCULATION RESULTS


 *******************************************************************************
 *  CALCULATION DONE:                                Fri Feb 23 15:07:53 2018  *
 *  OLDGEO     - PREVIOUS GEOMETRY TO BE USED
 *  FORCE      - FORCE CALCULATION SPECIFIED
 *  T=         - A TIME OF 172800.0 SECONDS REQUESTED
 *  DUMP=N     - RESTART FILE WRITTEN EVERY  7200.000 SECONDS
 *  ISOTOPE    - FORCE MATRIX WRITTEN TO DISK (CHAN. 9 )
 *******************************************************************************
oldgeo FORCE isotope
 Narcissistic reaction: Butane + butyl radical <=> butyl radical + butane
 Calculate force constants and normal modes for the refined transition state
   ATOM                 CHEMICAL                   X               Y               Z
  NUMBER                 SYMBOL               (ANGSTROMS)     (ANGSTROMS)     (ANGSTROMS)
 
     1       C(HETATM    1  C1  HET A   1)    0.05101527  *   0.51443209  *   0.16251219  *
     2       C(HETATM    2  C2  HET A   1)    1.52458692  *   0.13229040  *   0.03013020  *
     3       C(HETATM    3  C3  HET A   1)    2.43372195  *   1.32351291  *   0.37891638  *
     4       C(HETATM    4  C4  HET A   1)    3.87766453  *   0.93446965  *   0.24644929  *
     5       C(HETATM    5  C1  HET B   2)    3.51178123  *   3.09570255  *   4.65359836  *
     6       C(HETATM    6  C2  HET B   2)    4.33176481  *   2.50279622  *   3.50845520  *
     7       C(HETATM    7  C3  HET B   2)    4.54798206  *   3.53702646  *   2.39302335  *
     8       C(HETATM    8  C4  HET B   2)    5.33872036  *   2.96275844  *   1.25430284  *
     9       H(HETATM    9 1H1  HET A   1)   -0.18897445  *   0.83912806  *   1.18110301  *
    10       H(HETATM   10 2H1  HET A   1)   -0.21308000  *   1.33363859  *  -0.51598747  *
    11       H(HETATM   11 3H1  HET A   1)   -0.60136013  *  -0.33278760  *  -0.07507413  *
    12       H(HETATM   12 1H2  HET A   1)    1.75607207  *  -0.72327250  *   0.69183355  *
    13       H(HETATM   13 2H2  HET A   1)    1.73761249  *  -0.21337264  *  -0.99881176  *
    14       H(HETATM   14 1H3  HET A   1)    2.19644265  *   2.18201634  *  -0.27884126  *
    15       H(HETATM   15 2H3  HET A   1)    2.21524585  *   1.67017957  *   1.40915590  *
    16       H(HETATM   16 1H4  HET A   1)    4.25366832  *   0.84997594  *  -0.76310423  *
    17       H(HETATM   17 2H4  HET A   1)    4.20704805  *   0.12499875  *   0.88297968  *
    18       H(HETATM   18 3H4  HET B   2)    6.24905051  *   2.44526862  *   1.52297316  *
    19       H(HETATM   19 1H1  HET B   2)    4.02540148  *   3.94625739  *   5.11554773  *
    20       H(HETATM   20 2H1  HET B   2)    2.53477545  *   3.44928113  *   4.30653244  *
    21       H(HETATM   21 3H1  HET B   2)    3.33337404  *   2.35270781  *   5.43935163  *
    22       H(HETATM   22 1H2  HET B   2)    5.30817202  *   2.14452900  *   3.88551538  *
    23       H(HETATM   23 2H2  HET B   2)    3.82115836  *   1.61005479  *   3.09874020  *
    24       H(HETATM   24 1H3  HET B   2)    3.56855746  *   3.91305782  *   2.03570250  *
    25       H(HETATM   25 2H3  HET B   2)    5.07187520  *   4.42581689  *   2.80396432  *
    26       H(HETATM   26 1H4  HET B   2)    4.60954285  *   1.96424113  *   0.72295787  *
    27       H(HETATM   27 2H4  HET B   2)    5.46608724  *   3.61208625  *   0.39874316  *
 

 General Reference for PM7:
 "Optimization of Parameters for Semiempirical Methods VI: More Modifications to the 
 NDDO Approximations and Re-optimization of Parameters", J. J. P. Stewart, J. Mol. Mod., 1:32, 19 (2013)
 http://www.springerlink.com/openurl.asp?genre=article&id=doi:10.1007/s00894-012-1667-x

           Empirical Formula: C8 H19  =    27 atoms



      MOLECULAR POINT GROUP   :   C1  


          UHF CALCULATION, NO. OF ALPHA ELECTRONS =   26
                           NO. OF BETA  ELECTRONS =   25


          HEAT OF FORMATION =      -0.588657 KCALS/MOLE


          CARTESIAN COORDINATE DERIVATIVES

   NUMBER  ATOM         X            Y            Z

     1       C      0.085300    -0.209780     0.158910
     2       C     -0.109258     0.005520     0.092465
     3       C     -0.118499     0.136651    -0.001694
     4       C      0.121256    -0.028226    -0.081368
     5       C     -0.114470     0.038024    -0.253090
     6       C     -0.235649    -0.065760    -0.122013
     7       C     -0.188950    -0.208900     0.096686
     8       C      0.126505    -0.001947     0.085508
     9       H      0.013984    -0.014188    -0.025839
    10       H     -0.051017     0.080771    -0.176203
    11       H      0.058776     0.054749     0.031844
    12       H     -0.013507    -0.016804     0.007446
    13       H      0.019590    -0.056554    -0.087430
    14       H      0.012562    -0.086679     0.034355
    15       H     -0.043737     0.011344    -0.021959
    16       H      0.000979     0.010047    -0.009895
    17       H      0.000334    -0.006363     0.019112
    18       H      0.025476    -0.070964     0.012248
    19       H      0.073040     0.103023     0.058286
    20       H      0.082418     0.082367     0.004923
    21       H      0.011651    -0.139060     0.194184
    22       H      0.179304    -0.015321     0.070855
    23       H     -0.031780     0.082059    -0.032112
    24       H      0.064624     0.025509     0.079221
    25       H      0.037470     0.236204     0.043935
    26       H      0.004304    -0.005125     0.014566
    27       H     -0.010709     0.059399    -0.192945
 


          GRADIENT NORM =   0.86208


          TIME FOR SCF CALCULATION =    0.02

          TIME FOR DERIVATIVES     =    0.02

          MOLECULAR WEIGHT =  115.24



          ROTATIONAL CONSTANTS IN CM(-1)

          A =    0.07817960   B =    0.02519863   C =    0.02080958



           PRINCIPAL MOMENTS OF INERTIA IN UNITS OF 10**(-40)*GRAM-CM**2

          A =      358.0573   B =     1110.8846   C =     1345.1872


          ORIENTATION OF MOLECULE IN FORCE CALCULATION

    NO.       ATOM         X         Y         Z

     1          C      -2.5626   -2.4797   -1.0048
     2          C      -1.0345   -2.4797   -1.0048
     3          C      -0.4860   -1.0423   -1.0048
     4          C       1.0153   -1.0565   -1.0032
     5          C      -0.2599    2.0591    2.5877
     6          C       0.7784    1.4123    1.6718
     7          C       0.8249    2.1177    0.3077
     8          C       1.8297    1.4822   -0.6078
     9          H      -2.9635   -1.9623   -0.1261
    10          H      -2.9634   -1.9795   -1.8938
    11          H      -2.9593   -3.5007   -0.9948
    12          H      -0.6547   -3.0267   -0.1216
    13          H      -0.6535   -3.0265   -1.8876
    14          H      -0.8725   -0.4930   -1.8850
    15          H      -0.8726   -0.4956   -0.1210
    16          H       1.4865   -1.3135   -1.9411
    17          H       1.4802   -1.5420   -0.1564
    18          H       2.8137    1.3187   -0.1911
    19          H      -0.0173    3.1084    2.7900
    20          H      -1.2604    2.0319    2.1425
    21          H      -0.3142    1.5420    3.5525
    22          H       1.7769    1.4434    2.1471
    23          H       0.5447    0.3393    1.5317
    24          H      -0.1827    2.1077   -0.1539
    25          H       1.0722    3.1910    0.4502
    26          H       1.4222    0.2201   -0.8362
    27          H       1.8642    1.8800   -1.6130


    FIRST DERIVATIVES WILL BE USED IN THE CALCULATION OF SECOND DERIVATIVES

          ESTIMATED TIME TO COMPLETE CALCULATION =        5.06 SECONDS

    FOR POINT-GROUP C1   THERE ARE   1 UNIQUE SYMMETRY FUNCTIONS.

 STEP:   1 TIME =     0.03 SECS, INTEGRAL =      0.03 TIME LEFT: 172799.94
 STEP:   2 TIME =     0.02 SECS, INTEGRAL =      0.05 TIME LEFT: 172799.92
 STEP:   3 TIME =     0.03 SECS, INTEGRAL =      0.08 TIME LEFT: 172799.89
 STEP:   4 TIME =     0.02 SECS, INTEGRAL =      0.09 TIME LEFT: 172799.88
 STEP:   5 TIME =     0.02 SECS, INTEGRAL =      0.11 TIME LEFT: 172799.86
 STEP:   6 TIME =     0.02 SECS, INTEGRAL =      0.12 TIME LEFT: 172799.84
 STEP:   7 TIME =     0.02 SECS, INTEGRAL =      0.14 TIME LEFT: 172799.83
 STEP:   8 TIME =     0.03 SECS, INTEGRAL =      0.17 TIME LEFT: 172799.80
 STEP:   9 TIME =     0.02 SECS, INTEGRAL =      0.19 TIME LEFT: 172799.78
 STEP:  10 TIME =     0.03 SECS, INTEGRAL =      0.22 TIME LEFT: 172799.75
 STEP:  11 TIME =     0.02 SECS, INTEGRAL =      0.23 TIME LEFT: 172799.73
 STEP:  12 TIME =     0.02 SECS, INTEGRAL =      0.25 TIME LEFT: 172799.72
 STEP:  13 TIME =     0.03 SECS, INTEGRAL =      0.28 TIME LEFT: 172799.69
 STEP:  14 TIME =     0.03 SECS, INTEGRAL =      0.31 TIME LEFT: 172799.66
 STEP:  15 TIME =     0.02 SECS, INTEGRAL =      0.33 TIME LEFT: 172799.64
 STEP:  16 TIME =     0.03 SECS, INTEGRAL =      0.36 TIME LEFT: 172799.61
 STEP:  17 TIME =     0.02 SECS, INTEGRAL =      0.38 TIME LEFT: 172799.59
 STEP:  18 TIME =     0.03 SECS, INTEGRAL =      0.41 TIME LEFT: 172799.56
 STEP:  19 TIME =     0.02 SECS, INTEGRAL =      0.42 TIME LEFT: 172799.55
 STEP:  20 TIME =     0.03 SECS, INTEGRAL =      0.45 TIME LEFT: 172799.52
 STEP:  21 TIME =     0.02 SECS, INTEGRAL =      0.47 TIME LEFT: 172799.50
 STEP:  22 TIME =     0.03 SECS, INTEGRAL =      0.50 TIME LEFT: 172799.47
 STEP:  23 TIME =     0.02 SECS, INTEGRAL =      0.52 TIME LEFT: 172799.45
 STEP:  24 TIME =     0.03 SECS, INTEGRAL =      0.55 TIME LEFT: 172799.42
 STEP:  25 TIME =     0.02 SECS, INTEGRAL =      0.56 TIME LEFT: 172799.41
 STEP:  26 TIME =     0.02 SECS, INTEGRAL =      0.58 TIME LEFT: 172799.39
 STEP:  27 TIME =     0.02 SECS, INTEGRAL =      0.59 TIME LEFT: 172799.38
 STEP:  28 TIME =     0.03 SECS, INTEGRAL =      0.62 TIME LEFT: 172799.34
 STEP:  29 TIME =     0.02 SECS, INTEGRAL =      0.64 TIME LEFT: 172799.33
 STEP:  30 TIME =     0.03 SECS, INTEGRAL =      0.67 TIME LEFT: 172799.30
 STEP:  31 TIME =     0.03 SECS, INTEGRAL =      0.70 TIME LEFT: 172799.27
 STEP:  32 TIME =     0.02 SECS, INTEGRAL =      0.72 TIME LEFT: 172799.25
 STEP:  33 TIME =     0.03 SECS, INTEGRAL =      0.75 TIME LEFT: 172799.22
 STEP:  34 TIME =     0.02 SECS, INTEGRAL =      0.77 TIME LEFT: 172799.20
 STEP:  35 TIME =     0.02 SECS, INTEGRAL =      0.78 TIME LEFT: 172799.19
 STEP:  36 TIME =     0.02 SECS, INTEGRAL =      0.80 TIME LEFT: 172799.17
 STEP:  37 TIME =     0.03 SECS, INTEGRAL =      0.83 TIME LEFT: 172799.14
 STEP:  38 TIME =     0.02 SECS, INTEGRAL =      0.84 TIME LEFT: 172799.12
 STEP:  39 TIME =     0.03 SECS, INTEGRAL =      0.88 TIME LEFT: 172799.09
 STEP:  40 TIME =     0.02 SECS, INTEGRAL =      0.89 TIME LEFT: 172799.08
 STEP:  41 TIME =     0.02 SECS, INTEGRAL =      0.91 TIME LEFT: 172799.06
 STEP:  42 TIME =     0.02 SECS, INTEGRAL =      0.92 TIME LEFT: 172799.05
 STEP:  43 TIME =     0.03 SECS, INTEGRAL =      0.95 TIME LEFT: 172799.02
 STEP:  44 TIME =     0.03 SECS, INTEGRAL =      0.98 TIME LEFT: 172798.98
 STEP:  45 TIME =     0.02 SECS, INTEGRAL =      1.00 TIME LEFT: 172798.97
 STEP:  46 TIME =     0.03 SECS, INTEGRAL =      1.03 TIME LEFT: 172798.94
 STEP:  47 TIME =     0.01 SECS, INTEGRAL =      1.04 TIME LEFT: 172798.93
 STEP:  48 TIME =     0.02 SECS, INTEGRAL =      1.06 TIME LEFT: 172798.91
 STEP:  49 TIME =     0.02 SECS, INTEGRAL =      1.08 TIME LEFT: 172798.89
 STEP:  50 TIME =     0.03 SECS, INTEGRAL =      1.11 TIME LEFT: 172798.86
 STEP:  51 TIME =     0.01 SECS, INTEGRAL =      1.12 TIME LEFT: 172798.85
 STEP:  52 TIME =     0.02 SECS, INTEGRAL =      1.14 TIME LEFT: 172798.83
 STEP:  53 TIME =     0.02 SECS, INTEGRAL =      1.16 TIME LEFT: 172798.81
 STEP:  54 TIME =     0.01 SECS, INTEGRAL =      1.17 TIME LEFT: 172798.80
 STEP:  55 TIME =     0.02 SECS, INTEGRAL =      1.19 TIME LEFT: 172798.78
 STEP:  56 TIME =     0.03 SECS, INTEGRAL =      1.21 TIME LEFT: 172798.75
 STEP:  57 TIME =     0.02 SECS, INTEGRAL =      1.23 TIME LEFT: 172798.73
 STEP:  58 TIME =     0.01 SECS, INTEGRAL =      1.25 TIME LEFT: 172798.72
 STEP:  59 TIME =     0.03 SECS, INTEGRAL =      1.28 TIME LEFT: 172798.69
 STEP:  60 TIME =     0.04 SECS, INTEGRAL =      1.31 TIME LEFT: 172798.66
 STEP:  61 TIME =     0.01 SECS, INTEGRAL =      1.32 TIME LEFT: 172798.64
 STEP:  62 TIME =     0.03 SECS, INTEGRAL =      1.36 TIME LEFT: 172798.61
 STEP:  63 TIME =     0.04 SECS, INTEGRAL =      1.39 TIME LEFT: 172798.58
 STEP:  64 TIME =     0.01 SECS, INTEGRAL =      1.40 TIME LEFT: 172798.57
 STEP:  65 TIME =     0.03 SECS, INTEGRAL =      1.43 TIME LEFT: 172798.54
 STEP:  66 TIME =     0.02 SECS, INTEGRAL =      1.45 TIME LEFT: 172798.52
 STEP:  67 TIME =     0.02 SECS, INTEGRAL =      1.46 TIME LEFT: 172798.50
 STEP:  68 TIME =     0.03 SECS, INTEGRAL =      1.50 TIME LEFT: 172798.47
 STEP:  69 TIME =     0.02 SECS, INTEGRAL =      1.51 TIME LEFT: 172798.46
 STEP:  70 TIME =     0.02 SECS, INTEGRAL =      1.53 TIME LEFT: 172798.44
 STEP:  71 TIME =     0.02 SECS, INTEGRAL =      1.54 TIME LEFT: 172798.43
 STEP:  72 TIME =     0.02 SECS, INTEGRAL =      1.56 TIME LEFT: 172798.41
 STEP:  73 TIME =     0.02 SECS, INTEGRAL =      1.57 TIME LEFT: 172798.39
 STEP:  74 TIME =     0.03 SECS, INTEGRAL =      1.61 TIME LEFT: 172798.36
 STEP:  75 TIME =     0.02 SECS, INTEGRAL =      1.62 TIME LEFT: 172798.35
 STEP:  76 TIME =     0.02 SECS, INTEGRAL =      1.64 TIME LEFT: 172798.33
 STEP:  77 TIME =     0.03 SECS, INTEGRAL =      1.67 TIME LEFT: 172798.30
 STEP:  78 TIME =     0.02 SECS, INTEGRAL =      1.68 TIME LEFT: 172798.29
 STEP:  79 TIME =     0.03 SECS, INTEGRAL =      1.71 TIME LEFT: 172798.25
 STEP:  80 TIME =     0.03 SECS, INTEGRAL =      1.75 TIME LEFT: 172798.22
 STEP:  81 TIME =     0.02 SECS, INTEGRAL =      1.76 TIME LEFT: 172798.21

(To convert to Hartree/Bohr^2, multiply by (10^(-21) x N x a0^2)/(4.184 x 627.51) =  0.0642)


           FORCE MATRIX IN MILLIDYNES/ANGSTROM


                  C  1       C  2       C  3       C  4       C  5       C  6
 ------------------------------------------------------------------------------
     C    1  11.402047
     C    2   3.114257  11.875717
     C    3   0.654366   2.806288  12.062572
     C    4   0.035625   0.653795   3.604038   9.923725
     C    5   0.004921   0.002492   0.007972   0.013740  11.400801
     C    6   0.002838   0.002937   0.010949   0.027018   3.112348  11.937751
     C    7   0.006840   0.005524   0.019141   0.194154   0.647329   2.889475
     C    8   0.018168   0.038691   0.156559   2.857232   0.064000   0.660768
     H    9   3.436214   0.682163   0.012837   0.004199   0.002798   0.001374
     H   10   3.434691   0.681868   0.012416   0.004029   0.001314   0.001091
     H   11   3.436266   0.673472   0.046184   0.006293   0.001134   0.000680
     H   12   0.687475   3.329628   0.681924   0.027220   0.002271   0.002148
     H   13   0.686751   3.329590   0.681611   0.026746   0.000715   0.000479
     H   14   0.012913   0.683889   3.319168   0.709849   0.002936   0.001876
     H   15   0.012980   0.686862   3.294222   0.705976   0.006580   0.004394
     H   16   0.004740   0.008284   0.669902   3.523619   0.002754   0.002513
     H   17   0.005684   0.013402   0.669397   3.518091   0.004588   0.005846
     H   18   0.003446   0.005495   0.019084   0.184596   0.006845   0.016056
     H   19   0.000925   0.000623   0.001413   0.003614   3.435532   0.682858
     H   20   0.002503   0.001125   0.003332   0.004450   3.437422   0.682100
     H   21   0.001829   0.001057   0.002413   0.002624   3.432554   0.672989
     H   22   0.000940   0.001108   0.002090   0.005949   0.686421   3.326880
     H   23   0.003134   0.002190   0.005299   0.013159   0.686188   3.311481
     H   24   0.003347   0.002447   0.005411   0.013041   0.014348   0.683831
     H   25   0.001204   0.001276   0.002702   0.028874   0.012832   0.686186
     H   26   0.026068   0.071159   0.639511   2.821298   0.016250   0.023127
     H   27   0.003169   0.005336   0.013682   0.179988   0.008555   0.043829


                  C  7       C  8       H  9       H 10       H 11       H 12
 ------------------------------------------------------------------------------
     C    7  12.081442
     C    8   3.579309   9.942353
     H    9   0.002292   0.004338   4.225074
     H   10   0.002270   0.004278   0.468635   4.223208
     H   11   0.000733   0.001703   0.469102   0.468956   4.225747
     H   12   0.002720   0.008614   0.016573   0.048376   0.018933   4.260024
     H   13   0.002424   0.008370   0.048601   0.016871   0.018462   0.460673
     H   14   0.004635   0.012953   0.005590   0.015190   0.001847   0.047496
     H   15   0.004743   0.015514   0.015764   0.005479   0.001944   0.016696
     H   16   0.022887   0.184391   0.000824   0.001235   0.000730   0.002709
     H   17   0.017901   0.175618   0.001264   0.000734   0.000873   0.012801
     H   18   0.669196   3.519231   0.000851   0.000798   0.000461   0.001663
     H   19   0.011744   0.006659   0.000300   0.000305   0.000369   0.000340
     H   20   0.014734   0.007199   0.001303   0.000750   0.000314   0.000733
     H   21   0.045724   0.007138   0.000952   0.000463   0.000371   0.000770
     H   22   0.686419   0.017768   0.000339   0.000368   0.000287   0.000695
     H   23   0.686603   0.020292   0.001343   0.000864   0.000642   0.002200
     H   24   3.301298   0.710427   0.001215   0.001245   0.000255   0.000873
     H   25   3.261273   0.697161   0.000326   0.000352   0.000280   0.000504
     H   26   0.703317   2.816325   0.005417   0.005467   0.002871   0.012056
     H   27   0.660503   3.513812   0.000710   0.000943   0.000350   0.001238


                  H 13       H 14       H 15       H 16       H 17       H 18
 ------------------------------------------------------------------------------
     H   13   4.259377
     H   14   0.016473   4.262234
     H   15   0.047415   0.456840   4.238851
     H   16   0.008733   0.018035   0.046384   4.251657
     H   17   0.003907   0.047452   0.014354   0.461900   4.250791
     H   18   0.001460   0.002201   0.002822   0.020925   0.019210   4.252132
     H   19   0.000350   0.000667   0.000754   0.000832   0.000997   0.001372
     H   20   0.000274   0.001157   0.003084   0.000831   0.001040   0.001101
     H   21   0.000343   0.000657   0.002108   0.000441   0.001142   0.001153
     H   22   0.000408   0.000476   0.001684   0.001252   0.002942   0.014821
     H   23   0.000485   0.002005   0.012613   0.002133   0.009219   0.006610
     H   24   0.000747   0.003733   0.006899   0.002683   0.002556   0.047264
     H   25   0.000522   0.001146   0.001163   0.003817   0.003082   0.011961
     H   26   0.011760   0.017769   0.027120   0.498801   0.487520   0.501928
     H   27   0.001498   0.003683   0.003125   0.019219   0.022553   0.460299


                  H 19       H 20       H 21       H 22       H 23       H 24
 ------------------------------------------------------------------------------
     H   19   4.224190
     H   20   0.469713   4.226388
     H   21   0.468831   0.469075   4.221045
     H   22   0.017127   0.048531   0.018285   4.257892
     H   23   0.048340   0.016399   0.019484   0.460471   4.245108
     H   24   0.005423   0.016184   0.001941   0.047667   0.016235   4.250302
     H   25   0.014498   0.005472   0.001987   0.016939   0.047386   0.459410
     H   26   0.004933   0.005313   0.003145   0.007687   0.019601   0.021210
     H   27   0.000938   0.001099   0.001517   0.002135   0.002425   0.017288


                  H 25       H 26       H 27
 ------------------------------------------
     H   25   4.217873
     H   26   0.061700   2.819433
     H   27   0.016160   0.496828   4.246143


          HEAT OF FORMATION =      -0.588657 KCALS/MOLE

          ZERO POINT ENERGY     143.048 KCAL/MOL

         NOTE: SYSTEM IS NOT A GROUND STATE, THEREFORE ZERO POINT
         ENERGY IS NOT MEANINGFULL. ZERO POINT ENERGY PRINTED
         DOES NOT INCLUDE THE  1 IMAGINARY FREQUENCIES


           NORMAL COORDINATE ANALYSIS (Total motion = 1 Angstrom)


   Root No.       1         2         3         4         5         6         7         8

                 1 A       2 A       3 A       4 A       5 A       6 A       7 A       8 A   

               -2379.5      13.9      31.9      37.1      66.7      78.6      91.4     159.7
  
           1    0.0004    0.0020   -0.0004   -0.0024   -0.0046    0.0014    0.0041   -0.0031
           2    0.0003    0.0279    0.0165    0.0169   -0.0188    0.0048    0.0088    0.0098
           3   -0.0001    0.0435   -0.0118   -0.0118   -0.0217    0.0111   -0.0216    0.0025
           4    0.0006    0.0020   -0.0004   -0.0023   -0.0047    0.0014    0.0041   -0.0027
           5   -0.0003    0.0166    0.0088    0.0030   -0.0034    0.0028    0.0049   -0.0083
           6    0.0001    0.0070    0.0340   -0.0175    0.0096   -0.0166    0.0231   -0.0080
           7    0.0050    0.0123    0.0066    0.0103   -0.0175    0.0027    0.0064    0.0083
           8    0.0043    0.0126    0.0060   -0.0019    0.0017    0.0023    0.0038   -0.0127
           9    0.0002    0.0045   -0.0168    0.0235    0.0306    0.0091    0.0440   -0.0002
          10   -0.0164    0.0122    0.0065    0.0101   -0.0173    0.0026    0.0064    0.0082
          11   -0.0398    0.0026   -0.0005   -0.0144    0.0124    0.0009    0.0021   -0.0134
          12   -0.0048   -0.0228    0.0173    0.0183    0.0094    0.0405   -0.0170   -0.0043
          13   -0.0001   -0.0376    0.0031    0.0036   -0.0153    0.0027    0.0079   -0.0077
          14   -0.0001   -0.0339   -0.0257   -0.0023   -0.0279   -0.0139    0.0040   -0.0031
          15    0.0002   -0.0252    0.0018    0.0022   -0.0186   -0.0062    0.0008    0.0013
          16   -0.0002   -0.0061    0.0063    0.0163    0.0244   -0.0140   -0.0203    0.0080
          17   -0.0001   -0.0106   -0.0091    0.0141    0.0118   -0.0194   -0.0198    0.0133
          18    0.0001   -0.0059   -0.0062    0.0051   -0.0016   -0.0209   -0.0144    0.0070
          19   -0.0014    0.0003   -0.0114   -0.0223    0.0279    0.0065   -0.0093    0.0061
          20    0.0066   -0.0122   -0.0050   -0.0138    0.0209    0.0120   -0.0075    0.0144
          21    0.0031   -0.0065   -0.0048   -0.0106    0.0032   -0.0041   -0.0076    0.0075
          22   -0.0098    0.0164   -0.0101   -0.0130    0.0089   -0.0035   -0.0004   -0.0154
          23   -0.0409   -0.0027    0.0092   -0.0023    0.0067    0.0110    0.0021   -0.0008
          24   -0.0096    0.0046   -0.0131   -0.0086   -0.0078   -0.0144   -0.0046   -0.0056
          25   -0.0004    0.0269   -0.0241    0.0057   -0.0281    0.0182   -0.0205    0.0089
          26    0.0000    0.0253    0.0597   -0.0051   -0.0246   -0.0304    0.0187    0.0752
          27    0.0002    0.0565   -0.0480    0.0048   -0.0290    0.0395   -0.0386   -0.0305
          28   -0.0004   -0.0155    0.0287   -0.0011    0.0085   -0.0142    0.0317   -0.0026
          29    0.0001    0.0365   -0.0230    0.0465   -0.0213    0.0415    0.0011   -0.0464
          30   -0.0002    0.0563   -0.0471    0.0043   -0.0290    0.0388   -0.0384   -0.0293
          31    0.0001   -0.0053   -0.0059   -0.0116    0.0056    0.0002    0.0011   -0.0155
          32   -0.0001    0.0308    0.0190    0.0203   -0.0229    0.0050    0.0100    0.0154
          33   -0.0001    0.0466    0.0242   -0.0402   -0.0319   -0.0231   -0.0234    0.0762
          34   -0.0005    0.0190   -0.0296   -0.0038   -0.0167    0.0163   -0.0214   -0.0025
          35   -0.0006    0.0073    0.0482   -0.0268   -0.0058   -0.0198    0.0010   -0.0178
          36    0.0010   -0.0060    0.0709   -0.0354    0.0132   -0.0370    0.0314   -0.0141
          37   -0.0007   -0.0229    0.0232   -0.0107    0.0179   -0.0147    0.0273   -0.0141
          38   -0.0006    0.0202   -0.0344    0.0260    0.0064    0.0245    0.0074   -0.0060
          39   -0.0007   -0.0060    0.0709   -0.0354    0.0132   -0.0369    0.0314   -0.0140
          40    0.0004   -0.0001    0.0287    0.0125   -0.0332    0.0215   -0.0265    0.0072
          41    0.0023    0.0201   -0.0304    0.0273    0.0151    0.0106    0.0304   -0.0041
          42    0.0001    0.0147   -0.0492    0.0406    0.0458    0.0059    0.0748    0.0055
          43    0.0025    0.0321   -0.0104    0.0178   -0.0106   -0.0156    0.0401    0.0139
          44    0.0026    0.0105    0.0462   -0.0244   -0.0182   -0.0053   -0.0215   -0.0172
          45    0.0013    0.0146   -0.0489    0.0407    0.0457    0.0057    0.0743    0.0055
          46    0.0181   -0.0063    0.0269    0.0046   -0.0297    0.0217   -0.0326    0.0064
          47    0.0656    0.0144   -0.0278   -0.0165    0.0078   -0.0334    0.0245    0.0190
          48    0.0026   -0.0353    0.0351    0.0161    0.0043    0.0594   -0.0428   -0.0140
          49    0.0175    0.0244   -0.0147    0.0093   -0.0020   -0.0153    0.0409    0.0114
          50    0.0616   -0.0133    0.0204   -0.0191    0.0215    0.0305   -0.0186   -0.0408
          51    0.0129   -0.0386    0.0410    0.0160    0.0062    0.0674   -0.0480   -0.0219
          52    0.0190    0.0106   -0.0037   -0.0046    0.0088    0.0031   -0.0001   -0.0005
          53    0.0651   -0.0024    0.0252    0.0325   -0.0148    0.0187    0.0118    0.0234
          54    0.0058    0.0184   -0.0220   -0.0150   -0.0160   -0.0269   -0.0015   -0.0314
          55    0.0004   -0.0674   -0.0109   -0.0319   -0.0615    0.0375    0.0541    0.0233
          56    0.0000   -0.0271   -0.0224    0.0111   -0.0173   -0.0289   -0.0113   -0.0247
          57   -0.0007   -0.0246    0.0018   -0.0246   -0.0185    0.0297    0.0254    0.0755
          58    0.0004   -0.0295    0.0005   -0.0005   -0.0077    0.0044    0.0067    0.0105
          59    0.0005   -0.0608   -0.0397   -0.0486   -0.0707    0.0351    0.0587    0.0619
          60   -0.0004   -0.0416    0.0086    0.0143   -0.0332   -0.0131    0.0003   -0.0436
          61   -0.0000   -0.0404    0.0173    0.0333   -0.0081   -0.0210   -0.0146   -0.0698
          62    0.0003   -0.0322   -0.0280    0.0178   -0.0272   -0.0437   -0.0161   -0.0602
          63   -0.0000   -0.0244    0.0014    0.0146   -0.0179   -0.0234   -0.0113   -0.0328
          64   -0.0000   -0.0149    0.0088    0.0203    0.0143   -0.0135   -0.0155    0.0044
          65    0.0006    0.0145    0.0031    0.0589    0.0414   -0.0582   -0.0557    0.0255
          66   -0.0006    0.0111   -0.0123   -0.0060    0.0175   -0.0193   -0.0219    0.0133
          67    0.0005    0.0225    0.0196    0.0520    0.0613   -0.0430   -0.0541    0.0228
          68    0.0009   -0.0166   -0.0118    0.0030    0.0050   -0.0098   -0.0112    0.0103
          69    0.0003   -0.0074   -0.0076    0.0306   -0.0117   -0.0466   -0.0228    0.0038
          70    0.0009    0.0053   -0.0145   -0.0274    0.0247    0.0081   -0.0054    0.0009
          71    0.0012   -0.0239   -0.0158   -0.0559    0.0424    0.0445   -0.0040    0.0322
          72    0.0015   -0.0172    0.0021    0.0014    0.0096   -0.0078   -0.0161    0.0184
          73   -0.0022   -0.0132   -0.0232   -0.0547    0.0483    0.0297   -0.0109    0.0259
          74   -0.0003   -0.0092   -0.0024   -0.0029    0.0152    0.0032   -0.0086    0.0099
          75    0.0043   -0.0054   -0.0037   -0.0369    0.0090    0.0221    0.0041    0.0068
          76    0.1808    0.0243    0.0078    0.0211   -0.0213   -0.0006    0.0137    0.0005
          77    0.5745   -0.0026    0.0024   -0.0179    0.0166    0.0071   -0.0023   -0.0165
          78    0.0868   -0.0102   -0.0079    0.0192   -0.0097    0.0008   -0.0046    0.0411
          79    0.0244    0.0304   -0.0258   -0.0337    0.0090   -0.0198   -0.0012   -0.0523
          80    0.0615    0.0043    0.0080   -0.0190    0.0105    0.0039    0.0024   -0.0288
          81    0.0135    0.0078   -0.0142   -0.0159   -0.0062   -0.0177   -0.0045   -0.0179


   Root No.       9        10        11        12        13        14        15        16

                 9 A      10 A      11 A      12 A      13 A      14 A      15 A      16 A   

                 165.3     170.3     254.7     281.2     360.1     394.7     451.8     555.6
  
           1    0.0012   -0.0017    0.0077    0.0055   -0.0187   -0.0385    0.0022   -0.0212
           2   -0.0013    0.0125   -0.0218    0.0099   -0.0049   -0.0343    0.0048   -0.0069
           3    0.0041   -0.0012    0.0008   -0.0007    0.0002   -0.0004   -0.0001    0.0000
           4    0.0011   -0.0013    0.0056    0.0055   -0.0153   -0.0333    0.0024   -0.0122
           5    0.0022   -0.0081    0.0302   -0.0040   -0.0180    0.0250   -0.0146    0.0034
           6   -0.0182    0.0079    0.0010   -0.0005   -0.0006    0.0003   -0.0004   -0.0003
           7   -0.0011    0.0099   -0.0070    0.0017    0.0005    0.0312   -0.0102    0.0242
           8    0.0030   -0.0129    0.0347   -0.0036   -0.0189    0.0033   -0.0063   -0.0092
           9    0.0098   -0.0035   -0.0029    0.0034   -0.0034    0.0013   -0.0011    0.0013
          10   -0.0011    0.0098   -0.0065    0.0010    0.0024    0.0386   -0.0111    0.0287
          11    0.0028   -0.0113   -0.0063    0.0083    0.0164   -0.0204    0.0114    0.0747
          12    0.0087   -0.0091    0.0067   -0.0059    0.0086   -0.0115    0.0005    0.0195
          13    0.0034   -0.0041   -0.0029   -0.0090    0.0078   -0.0064   -0.0231   -0.0017
          14    0.0014    0.0011    0.0061    0.0208    0.0050    0.0017    0.0021   -0.0010
          15    0.0001    0.0026   -0.0097   -0.0194   -0.0247    0.0110    0.0417    0.0045
          16   -0.0101   -0.0100    0.0025    0.0098    0.0119   -0.0059   -0.0248   -0.0033
          17   -0.0108   -0.0032   -0.0107   -0.0217   -0.0203    0.0058    0.0171    0.0010
          18   -0.0064   -0.0013    0.0073    0.0276    0.0005    0.0049    0.0128   -0.0001
          19    0.0026    0.0128    0.0064    0.0103   -0.0062    0.0058    0.0277    0.0032
          20    0.0010    0.0194   -0.0135   -0.0261   -0.0048    0.0033   -0.0268   -0.0180
          21    0.0001    0.0111    0.0060    0.0255    0.0089    0.0032   -0.0144   -0.0113
          22    0.0033   -0.0145   -0.0067   -0.0192    0.0226    0.0076    0.0410   -0.0167
          23    0.0015    0.0002   -0.0140    0.0060    0.0403    0.0207    0.0113   -0.0470
          24    0.0005   -0.0055   -0.0070   -0.0259    0.0137   -0.0097   -0.0397   -0.0122
          25    0.0119    0.0007   -0.0116    0.0108   -0.0135   -0.0657    0.0113   -0.0279
          26    0.1086   -0.0191   -0.0384    0.0150   -0.0019   -0.0578    0.0122   -0.0140
          27   -0.0556    0.0185    0.0016   -0.0011    0.0006   -0.0006    0.0001   -0.0000
          28   -0.0122    0.0105   -0.0110    0.0111   -0.0148   -0.0640    0.0106   -0.0283
          29   -0.1141    0.0561   -0.0357    0.0138   -0.0014   -0.0572    0.0124   -0.0145
          30   -0.0533    0.0177    0.0016   -0.0012    0.0006   -0.0003    0.0001    0.0002
          31    0.0036   -0.0162    0.0460   -0.0055   -0.0275    0.0172   -0.0161   -0.0044
          32   -0.0009    0.0178   -0.0372    0.0145   -0.0014   -0.0575    0.0124   -0.0138
          33    0.1400   -0.0476   -0.0007   -0.0000    0.0002   -0.0011   -0.0000    0.0005
          34    0.0149   -0.0127    0.0181    0.0039   -0.0217   -0.0348    0.0011   -0.0204
          35   -0.0171   -0.0038    0.0401   -0.0075   -0.0195    0.0210   -0.0138   -0.0036
          36   -0.0358    0.0152    0.0032   -0.0024    0.0005    0.0005   -0.0004   -0.0014
          37   -0.0104   -0.0023    0.0196    0.0030   -0.0218   -0.0353    0.0008   -0.0210
          38    0.0228   -0.0205    0.0352   -0.0027   -0.0229    0.0220   -0.0146    0.0000
          39   -0.0358    0.0153    0.0025   -0.0021    0.0005   -0.0010    0.0001   -0.0018
          40   -0.0030    0.0086    0.0048   -0.0066    0.0021    0.0431   -0.0173    0.0294
          41    0.0201   -0.0161    0.0336   -0.0017   -0.0268    0.0206   -0.0141   -0.0183
          42    0.0215   -0.0054   -0.0071    0.0077   -0.0096    0.0072   -0.0027   -0.0096
          43   -0.0001    0.0144   -0.0066    0.0046   -0.0122    0.0592   -0.0192    0.0009
          44   -0.0148   -0.0056    0.0412   -0.0089   -0.0180    0.0130   -0.0109   -0.0070
          45    0.0213   -0.0056   -0.0082    0.0083   -0.0090    0.0074   -0.0025   -0.0080
          46   -0.0021    0.0075   -0.0098   -0.0012    0.0126    0.0304   -0.0130    0.0586
          47   -0.0044    0.0246    0.0326   -0.0530    0.0906   -0.0725    0.0084    0.1829
          48    0.0102   -0.0200   -0.0059    0.0100   -0.0068    0.0000   -0.0002    0.0027
          49   -0.0007    0.0150   -0.0272    0.0106    0.0059    0.0410   -0.0121    0.0590
          50    0.0088   -0.0402   -0.0713    0.0724   -0.0298    0.0228    0.0119    0.0510
          51    0.0119   -0.0287   -0.0187    0.0258   -0.0206    0.0108    0.0021   -0.0116
          52    0.0021    0.0005    0.0225   -0.0107    0.0390    0.0057    0.0700   -0.0197
          53   -0.0013    0.0190    0.0592   -0.0255    0.1107    0.0099    0.0790   -0.0841
          54    0.0023   -0.0337   -0.0478   -0.0592    0.0002   -0.0102   -0.0888   -0.0162
          55   -0.0312   -0.0418    0.0023    0.0022    0.0170   -0.0090   -0.0295   -0.0012
          56    0.0236    0.0221    0.0069    0.0235    0.0073    0.0013   -0.0014   -0.0021
          57   -0.0731   -0.0610   -0.0197   -0.0456   -0.0446    0.0146    0.0606    0.0087
          58   -0.0147   -0.0189    0.0018    0.0050    0.0143   -0.0080   -0.0314   -0.0035
          59   -0.0668   -0.0654    0.0081    0.0240    0.0079   -0.0001   -0.0010    0.0002
          60    0.0450    0.0400   -0.0208   -0.0517   -0.0408    0.0151    0.0642    0.0093
          61    0.0674    0.0535   -0.0177   -0.0501   -0.0147   -0.0004    0.0061    0.0034
          62    0.0574    0.0496    0.0181    0.0533    0.0282   -0.0028   -0.0217   -0.0063
          63    0.0337    0.0319   -0.0045   -0.0053   -0.0144    0.0090    0.0319    0.0024
          64   -0.0088   -0.0122   -0.0006    0.0012    0.0107   -0.0076   -0.0294   -0.0022
          65   -0.0331   -0.0299   -0.0121   -0.0171   -0.0223    0.0020    0.0151    0.0120
          66   -0.0074    0.0051    0.0126    0.0418    0.0008    0.0088    0.0238   -0.0017
          67   -0.0300   -0.0296   -0.0024    0.0053    0.0077   -0.0083   -0.0324    0.0016
          68   -0.0053    0.0035   -0.0100   -0.0211   -0.0187    0.0067    0.0167   -0.0022
          69   -0.0144   -0.0197    0.0135    0.0433    0.0026    0.0019    0.0238    0.0151
          70    0.0050    0.0104    0.0028   -0.0007   -0.0033    0.0067    0.0346   -0.0003
          71    0.0134    0.0676   -0.0053   -0.0125   -0.0495    0.0058   -0.0546    0.0026
          72   -0.0050    0.0157    0.0125    0.0454    0.0008    0.0008   -0.0332   -0.0034
          73    0.0110    0.0559    0.0157    0.0181   -0.0594    0.0043    0.0029    0.0344
          74   -0.0023    0.0072   -0.0153   -0.0272    0.0055    0.0037   -0.0196   -0.0233
          75    0.0109    0.0303    0.0062    0.0358    0.0195    0.0097   -0.0250   -0.0267
          76    0.0003   -0.0030    0.0427   -0.0269    0.0371    0.0280    0.0481   -0.0669
          77    0.0036   -0.0138   -0.0387    0.0235    0.0132    0.0057   -0.0015    0.0320
          78   -0.0026    0.0393    0.0853   -0.0925    0.0800   -0.0638    0.0012    0.0400
          79    0.0064   -0.0518   -0.0781   -0.0414   -0.0176    0.0103   -0.0348   -0.0041
          80    0.0038   -0.0263   -0.0667    0.0608    0.0105    0.0518   -0.0022   -0.0563
          81    0.0015   -0.0173   -0.0309   -0.0061    0.0008    0.0026   -0.0492   -0.0163


   Root No.      17        18        19        20        21        22        23        24

                17 A      18 A      19 A      20 A      21 A      22 A      23 A      24 A   

                 686.6     796.4     799.7     883.9     893.5     921.8     952.9    1003.5
  
           1   -0.0053   -0.0010   -0.0001    0.0019   -0.0032   -0.0047    0.0141    0.0029
           2   -0.0014   -0.0009    0.0001    0.0016   -0.0032   -0.0058    0.0212    0.0114
           3    0.0002   -0.0002   -0.0000    0.0068    0.0036    0.0022    0.0008    0.0079
           4   -0.0016   -0.0001    0.0000   -0.0001    0.0000    0.0002   -0.0009    0.0009
           5   -0.0074   -0.0034    0.0003    0.0040   -0.0076   -0.0104    0.0268    0.0036
           6    0.0004    0.0042    0.0184    0.0164    0.0073    0.0027    0.0001   -0.0031
           7    0.0016   -0.0011    0.0000    0.0002    0.0003    0.0006   -0.0035    0.0000
           8   -0.0012    0.0012   -0.0002   -0.0028    0.0060    0.0103   -0.0342   -0.0119
           9   -0.0027    0.0044    0.0170   -0.0138   -0.0078   -0.0048   -0.0017   -0.0074
          10    0.0032    0.0002    0.0004   -0.0020    0.0028    0.0046   -0.0124   -0.0011
          11    0.0260    0.0021    0.0006   -0.0042    0.0067    0.0066   -0.0089    0.0107
          12   -0.0260    0.0013   -0.0032   -0.0080   -0.0013    0.0045    0.0001    0.0100
          13    0.0043   -0.0003    0.0008   -0.0024    0.0025    0.0085    0.0069   -0.0068
          14   -0.0018    0.0003    0.0001   -0.0022    0.0033    0.0077    0.0076   -0.0061
          15   -0.0054    0.0011   -0.0009   -0.0013    0.0083   -0.0222   -0.0026   -0.0029
          16    0.0004   -0.0125    0.0039   -0.0059    0.0120   -0.0060    0.0011    0.0028
          17    0.0035   -0.0127    0.0048   -0.0052    0.0018    0.0255    0.0067    0.0024
          18   -0.0056   -0.0049    0.0009   -0.0031    0.0121   -0.0235   -0.0031    0.0013
          19   -0.0049   -0.0130    0.0024    0.0055   -0.0110    0.0026   -0.0080    0.0053
          20    0.0046   -0.0123    0.0032    0.0047   -0.0049   -0.0278   -0.0173    0.0052
          21    0.0019   -0.0079    0.0027    0.0025   -0.0120    0.0230   -0.0011    0.0030
          22    0.0018    0.0035   -0.0012    0.0026   -0.0030   -0.0073    0.0066   -0.0082
          23   -0.0235    0.0046   -0.0038    0.0034    0.0006   -0.0061    0.0072   -0.0091
          24    0.0317   -0.0016    0.0037    0.0008   -0.0120    0.0183    0.0067   -0.0048
          25   -0.0022   -0.0074   -0.0437   -0.0655   -0.0242   -0.0037   -0.0514   -0.0705
          26    0.0009    0.0027    0.0021   -0.0016    0.0058    0.0097   -0.0343   -0.0185
          27    0.0001   -0.0059   -0.0247   -0.0281   -0.0137   -0.0070   -0.0009   -0.0154
          28   -0.0012    0.0119    0.0431    0.0601    0.0370    0.0277   -0.0394    0.0152
          29    0.0017    0.0015   -0.0027   -0.0038    0.0049    0.0094   -0.0345   -0.0191
          30    0.0002   -0.0056   -0.0246   -0.0280   -0.0133   -0.0063   -0.0031   -0.0166
          31   -0.0120   -0.0070    0.0001    0.0109   -0.0224   -0.0382    0.1341    0.0659
          32    0.0016    0.0018   -0.0002   -0.0029    0.0055    0.0097   -0.0350   -0.0186
          33   -0.0008   -0.0053   -0.0227   -0.0300   -0.0146   -0.0073   -0.0022   -0.0174
          34   -0.0046    0.0111    0.0474    0.0499    0.0244    0.0141   -0.0104    0.0147
          35   -0.0009   -0.0255   -0.0920   -0.0325   -0.0174   -0.0066    0.0055    0.0167
          36    0.0049   -0.0179   -0.0710   -0.0344   -0.0144   -0.0047   -0.0014    0.0016
          37   -0.0037   -0.0114   -0.0471   -0.0506   -0.0231   -0.0088   -0.0185   -0.0385
          38   -0.0138    0.0208    0.0923    0.0369    0.0088   -0.0019    0.0014   -0.0344
          39    0.0052   -0.0180   -0.0708   -0.0344   -0.0144   -0.0051    0.0005    0.0025
          40   -0.0344    0.0104    0.0410   -0.0469   -0.0272   -0.0118   -0.0049    0.0079
          41    0.0101   -0.0252   -0.0910    0.0248    0.0186    0.0169   -0.0184    0.0166
          42    0.0225   -0.0195   -0.0693    0.0302    0.0177    0.0098    0.0021    0.0076
          43    0.0226   -0.0133   -0.0423    0.0506    0.0225    0.0091   -0.0015   -0.0257
          44   -0.0251    0.0265    0.0907   -0.0270   -0.0152   -0.0069   -0.0266   -0.0469
          45    0.0231   -0.0201   -0.0694    0.0313    0.0172    0.0095    0.0023    0.0073
          46    0.0041   -0.0184   -0.0479    0.0795    0.0322    0.0136    0.0033   -0.0515
          47   -0.1342   -0.0016   -0.0177    0.0163    0.0018    0.0125    0.0274   -0.0159
          48    0.0219   -0.0086   -0.0254    0.0341    0.0164    0.0064   -0.0013   -0.0146
          49   -0.0023    0.0053    0.0450   -0.0607   -0.0488   -0.0357    0.0191    0.0087
          50    0.1627   -0.0105    0.0166    0.0032   -0.0272   -0.0510    0.0329   -0.0318
          51    0.0623   -0.0095   -0.0214    0.0338    0.0118   -0.0046    0.0052   -0.0207
          52    0.0410   -0.0021    0.0042    0.0043   -0.0210    0.0194    0.0125   -0.0108
          53    0.1396    0.0405    0.0082   -0.0354    0.0353   -0.0052    0.0256    0.0419
          54   -0.0011    0.0310   -0.0055   -0.0245    0.0578   -0.0496   -0.0058    0.0329
          55    0.0025    0.0468   -0.0151    0.0313   -0.0546   -0.0386   -0.0587    0.0496
          56   -0.0016   -0.0043    0.0015   -0.0052    0.0108   -0.0007    0.0090   -0.0099
          57   -0.0030   -0.0164    0.0058   -0.0135    0.0163    0.0555    0.0394   -0.0260
          58    0.0032   -0.0119    0.0042   -0.0117    0.0256   -0.0136    0.0146   -0.0203
          59   -0.0019    0.0350   -0.0118    0.0223   -0.0400   -0.0185   -0.0382    0.0343
          60   -0.0039    0.0316   -0.0102    0.0236   -0.0528    0.0314   -0.0257    0.0357
          61    0.0064    0.0124   -0.0027    0.0105   -0.0403    0.0874    0.0091    0.0121
          62   -0.0045    0.0164   -0.0067    0.0092   -0.0003   -0.0817   -0.0361    0.0152
          63   -0.0065    0.0102   -0.0046    0.0056    0.0021   -0.0568   -0.0231    0.0092
          64    0.0033   -0.0026    0.0016   -0.0090    0.0188   -0.0032    0.0153   -0.0167
          65    0.0025    0.1267   -0.0358    0.0325   -0.0586    0.0000   -0.0127   -0.0073
          66   -0.0097   -0.0134    0.0022    0.0084   -0.0147   -0.0150   -0.0321    0.0410
          67    0.0029    0.1041   -0.0299    0.0322   -0.0558   -0.0256   -0.0334    0.0146
          68    0.0027   -0.0373    0.0115   -0.0112    0.0143    0.0178    0.0064    0.0049
          69   -0.0086    0.0665   -0.0203    0.0051    0.0032    0.0008    0.0320   -0.0451
          70   -0.0013    0.0001   -0.0012    0.0088   -0.0169    0.0046    0.0005   -0.0126
          71    0.0207    0.1182   -0.0255   -0.0270    0.0511    0.0098    0.0422   -0.0201
          72   -0.0026   -0.0155    0.0059   -0.0113    0.0165    0.0067   -0.0121    0.0382
          73    0.0171    0.0985   -0.0202   -0.0317    0.0523    0.0328    0.0371    0.0059
          74    0.0014   -0.0378    0.0091    0.0104   -0.0178   -0.0232   -0.0250    0.0090
          75   -0.0065    0.0650   -0.0180    0.0017    0.0029    0.0088    0.0340   -0.0459
          76    0.0608    0.0358    0.0066   -0.0458    0.0519    0.0571   -0.0596    0.0771
          77   -0.0134   -0.0081   -0.0005    0.0098   -0.0163   -0.0134    0.0121   -0.0215
          78   -0.0130   -0.0090   -0.0160    0.0311    0.0031   -0.0346    0.0021   -0.0356
          79   -0.0967    0.0278   -0.0164   -0.0137    0.0630   -0.0669   -0.0135    0.0239
          80   -0.1337    0.0136   -0.0101   -0.0107    0.0034    0.1249   -0.0082    0.0323
          81   -0.0201    0.0038   -0.0003   -0.0052   -0.0052    0.0608   -0.0003    0.0124


   Root No.      25        26        27        28        29        30        31        32

                25 A      26 A      27 A      28 A      29 A      30 A      31 A      32 A   

                1011.1    1027.8    1086.2    1122.0    1134.9    1141.5    1158.1    1164.7
  
           1   -0.0018   -0.0002   -0.0079    0.0092   -0.0671   -0.0122    0.0152   -0.0210
           2   -0.0080   -0.0054    0.0102   -0.0053    0.0182    0.0014    0.0067   -0.0136
           3    0.0139    0.0015    0.0019    0.0010    0.0015    0.0009    0.0229    0.0128
           4   -0.0007   -0.0010    0.0082   -0.0098    0.0719    0.0133   -0.0182    0.0267
           5   -0.0015    0.0008   -0.0119    0.0076   -0.0206    0.0001   -0.0185    0.0378
           6   -0.0071   -0.0012   -0.0026   -0.0017   -0.0017   -0.0012   -0.0306   -0.0168
           7   -0.0005   -0.0007    0.0075   -0.0014    0.0035   -0.0004    0.0027   -0.0105
           8    0.0074    0.0033    0.0059   -0.0066    0.0208    0.0005    0.0172   -0.0356
           9   -0.0098   -0.0002    0.0022    0.0026    0.0025    0.0020    0.0330    0.0161
          10    0.0009   -0.0009    0.0001   -0.0033   -0.0002   -0.0014    0.0028    0.0015
          11   -0.0074   -0.0072    0.0128   -0.0028   -0.0131   -0.0043    0.0003    0.0042
          12    0.0117   -0.0021   -0.0054   -0.0108   -0.0024   -0.0046   -0.0214   -0.0116
          13    0.0039   -0.0077    0.0046    0.0034    0.0053   -0.0708   -0.0020    0.0054
          14    0.0017    0.0123    0.0114   -0.0193   -0.0157    0.0369   -0.0027    0.0055
          15    0.0040   -0.0201   -0.0001   -0.0064   -0.0091    0.0411   -0.0025    0.0055
          16   -0.0019    0.0058   -0.0059   -0.0021   -0.0039    0.0771    0.0031   -0.0079
          17   -0.0017   -0.0019   -0.0129    0.0215    0.0185   -0.0341    0.0036   -0.0071
          18   -0.0004    0.0020   -0.0021    0.0066    0.0110   -0.0505    0.0037   -0.0082
          19   -0.0036    0.0071    0.0036   -0.0054   -0.0076   -0.0091   -0.0054    0.0115
          20   -0.0005   -0.0099    0.0118   -0.0171   -0.0134   -0.0083   -0.0027    0.0043
          21   -0.0027    0.0076    0.0054   -0.0026   -0.0026   -0.0139   -0.0018    0.0045
          22    0.0057   -0.0068   -0.0043   -0.0009    0.0069    0.0048    0.0051   -0.0095
          23    0.0025    0.0140   -0.0011    0.0104    0.0110    0.0008    0.0035   -0.0091
          24    0.0052   -0.0140   -0.0114   -0.0019    0.0042    0.0174    0.0023   -0.0041
          25   -0.0517    0.0068   -0.0400    0.0148   -0.0848   -0.0126   -0.0890   -0.0184
          26    0.0139    0.0092   -0.0175    0.0084   -0.0222   -0.0003   -0.0128    0.0306
          27   -0.0276   -0.0031   -0.0019   -0.0018   -0.0002   -0.0010   -0.0222   -0.0163
          28    0.0919    0.0211   -0.0231    0.0218   -0.0731   -0.0060    0.0705    0.0677
          29    0.0131    0.0091   -0.0178    0.0083   -0.0224   -0.0004   -0.0166    0.0282
          30   -0.0263   -0.0023   -0.0037   -0.0007   -0.0028   -0.0009   -0.0250   -0.0096
          31   -0.0470   -0.0299    0.0479   -0.0192    0.0388   -0.0023    0.0393   -0.0751
          32    0.0130    0.0086   -0.0158    0.0070   -0.0205   -0.0009   -0.0101    0.0200
          33   -0.0294   -0.0029   -0.0031   -0.0013   -0.0018   -0.0011   -0.0276   -0.0155
          34    0.0527    0.0104   -0.0061   -0.0012    0.0471    0.0109   -0.0656    0.0071
          35    0.0546    0.0125   -0.0101    0.0130   -0.0084    0.0050    0.0200    0.0574
          36    0.0059    0.0013    0.0023    0.0016    0.0013    0.0011    0.0227    0.0129
          37   -0.0356    0.0020   -0.0115   -0.0023    0.0516    0.0133    0.0210    0.0645
          38   -0.0407    0.0001   -0.0273    0.0033   -0.0137    0.0003   -0.0606    0.0211
          39    0.0052    0.0011    0.0027    0.0017    0.0018    0.0012    0.0234    0.0113
          40    0.0462    0.0120    0.0008    0.0145   -0.0223    0.0005    0.0662    0.0148
          41    0.0635    0.0129   -0.0071    0.0028   -0.0046   -0.0006   -0.0235   -0.0412
          42    0.0087    0.0002   -0.0030   -0.0017    0.0007   -0.0001   -0.0271   -0.0111
          43   -0.0329   -0.0019   -0.0207   -0.0019   -0.0403   -0.0118   -0.0632   -0.0309
          44   -0.0411    0.0028   -0.0103    0.0031   -0.0053   -0.0007    0.0382    0.0007
          45    0.0078   -0.0010   -0.0027   -0.0036   -0.0050   -0.0029   -0.0238   -0.0135
          46   -0.0664   -0.0042   -0.0428   -0.0124    0.0139    0.0038    0.0872    0.0403
          47   -0.0000    0.0013   -0.0766   -0.0300    0.0044   -0.0032    0.0106   -0.0122
          48   -0.0295   -0.0046   -0.0031   -0.0035    0.0019   -0.0001    0.0263    0.0161
          49    0.0881    0.0322   -0.0137    0.0336    0.0079    0.0124   -0.0792   -0.0404
          50    0.0288    0.0418    0.0064    0.0959    0.0029    0.0364   -0.0239   -0.0095
          51   -0.0246    0.0052    0.0033    0.0280    0.0006    0.0119    0.0170    0.0103
          52    0.0118   -0.0403   -0.0160   -0.0031    0.0059    0.0228    0.0045   -0.0030
          53   -0.0137    0.0297   -0.0830   -0.0547   -0.0060   -0.0382   -0.0124    0.0581
          54   -0.0241    0.0896   -0.0096   -0.0195   -0.0075   -0.0491   -0.0082    0.0178
          55   -0.0223   -0.0085   -0.0484    0.0557    0.0426   -0.0078    0.0128   -0.0277
          56    0.0055   -0.0055    0.0103   -0.0151   -0.0129    0.0144   -0.0039    0.0087
          57    0.0057    0.0556    0.0383   -0.0475   -0.0328    0.0253   -0.0061    0.0119
          58    0.0150   -0.0457    0.0093   -0.0028   -0.0031   -0.0669   -0.0068    0.0162
          59   -0.0178    0.0146   -0.0275    0.0239    0.0170    0.0522    0.0083   -0.0191
          60   -0.0268    0.0844   -0.0138    0.0052    0.0076    0.0768    0.0105   -0.0248
          61   -0.0188    0.1064    0.0124   -0.0130   -0.0015    0.0056    0.0051   -0.0129
          62    0.0024   -0.0764   -0.0291    0.0293    0.0162    0.0072    0.0017   -0.0032
          63    0.0019   -0.0490   -0.0184    0.0167    0.0079    0.0178    0.0007   -0.0013
          64    0.0103   -0.0198    0.0062   -0.0047   -0.0053    0.0593    0.0032   -0.0093
          65    0.0069   -0.0161    0.0276   -0.0198   -0.0194   -0.0559   -0.0106    0.0252
          66   -0.0257    0.0561   -0.0237    0.0133    0.0152   -0.0521    0.0011    0.0005
          67   -0.0039   -0.0089    0.0078   -0.0335   -0.0269    0.0215   -0.0093    0.0223
          68   -0.0029   -0.0020   -0.0174    0.0236    0.0197   -0.0111    0.0056   -0.0119
          69    0.0188    0.0150    0.0485   -0.0162   -0.0116   -0.0618   -0.0035    0.0026
          70    0.0082   -0.0182    0.0200   -0.0164   -0.0136   -0.0345   -0.0061    0.0110
          71    0.0113   -0.0165   -0.0205    0.0228    0.0225    0.0429    0.0121   -0.0266
          72   -0.0255    0.0592   -0.0353    0.0239    0.0163    0.0488    0.0041   -0.0035
          73   -0.0035   -0.0023   -0.0550    0.0576    0.0430    0.0221    0.0098   -0.0158
          74   -0.0029   -0.0079    0.0127   -0.0187   -0.0164   -0.0107   -0.0051    0.0093
          75    0.0214    0.0179    0.0600   -0.0494   -0.0257   -0.0069    0.0011   -0.0096
          76   -0.0423   -0.0400    0.0791    0.0185   -0.0736   -0.0060   -0.0251    0.0014
          77    0.0152    0.0086   -0.0216   -0.0376    0.0247   -0.0109    0.0177   -0.0186
          78   -0.0075    0.0383    0.1099    0.1871    0.0050    0.0629   -0.0179    0.0232
          79   -0.0249    0.0812    0.0241    0.0166   -0.0113   -0.0395   -0.0132    0.0336
          80   -0.0188   -0.0978    0.0101    0.0745   -0.0251    0.0589   -0.0227    0.0461
          81   -0.0055   -0.0450   -0.0026    0.0263   -0.0102    0.0348   -0.0089    0.0187


   Root No.      33        34        35        36        37        38        39        40

                33 A      34 A      35 A      36 A      37 A      38 A      39 A      40 A   

                1175.9    1182.9    1196.7    1203.3    1209.8    1213.4    1217.4    1220.7
  
           1   -0.0002   -0.0076   -0.0005    0.0009   -0.0004    0.0007    0.0005    0.0007
           2    0.0045   -0.0082   -0.0065    0.0012    0.0006    0.0009    0.0006   -0.0003
           3    0.0011    0.0038   -0.0021    0.0016    0.0013    0.0166    0.0158    0.0010
           4   -0.0011    0.0095    0.0013   -0.0006    0.0003   -0.0012   -0.0010   -0.0008
           5   -0.0112    0.0146    0.0047    0.0052   -0.0002   -0.0038   -0.0012   -0.0011
           6   -0.0017   -0.0056    0.0041   -0.0031   -0.0009   -0.0210    0.0061   -0.0079
           7    0.0051    0.0284    0.0418   -0.0310   -0.0030    0.0043   -0.0005    0.0049
           8    0.0105   -0.0155   -0.0035   -0.0058   -0.0001    0.0040    0.0009    0.0021
           9    0.0011    0.0019   -0.0004   -0.0002   -0.0008   -0.0083   -0.0236    0.0031
          10   -0.0107   -0.0356   -0.0327    0.0276    0.0001   -0.0019    0.0008   -0.0017
          11   -0.0147   -0.0027    0.0176   -0.0032   -0.0053    0.0010   -0.0001    0.0040
          12   -0.0011    0.0022   -0.0012    0.0028    0.0002    0.0173    0.0027    0.0043
          13    0.0048   -0.0032   -0.0042   -0.0097    0.0137   -0.0021    0.0016    0.0064
          14    0.0011   -0.0033   -0.0074   -0.0128    0.0124   -0.0020    0.0017    0.0064
          15    0.0211   -0.0093    0.0081    0.0007    0.0073   -0.0004    0.0008    0.0049
          16   -0.0076    0.0070    0.0015    0.0109   -0.0164   -0.0025    0.0030    0.0066
          17    0.0051    0.0020    0.0186    0.0272   -0.0056   -0.0015    0.0018    0.0048
          18   -0.0345    0.0176   -0.0245   -0.0137   -0.0174   -0.0029    0.0022    0.0012
          19    0.0369   -0.0104   -0.0016   -0.0125   -0.0316    0.0047   -0.0031   -0.0092
          20   -0.0249    0.0055   -0.0148   -0.0059    0.0072    0.0020   -0.0031   -0.0122
          21    0.0055   -0.0102    0.0275    0.0321    0.0341    0.0028   -0.0039   -0.0089
          22   -0.0309    0.0065    0.0047    0.0088    0.0374   -0.0002   -0.0018   -0.0034
          23    0.0229    0.0091    0.0000   -0.0072   -0.0050    0.0005   -0.0012   -0.0020
          24    0.0112    0.0035   -0.0091   -0.0188   -0.0195    0.0005    0.0003    0.0012
          25   -0.0151    0.0016    0.0183   -0.0051   -0.0046   -0.0498   -0.0427   -0.0031
          26   -0.0084    0.0128    0.0037    0.0036   -0.0003    0.0031   -0.0029    0.0016
          27   -0.0001   -0.0054    0.0023   -0.0027   -0.0007   -0.0146   -0.0040   -0.0031
          28   -0.0072    0.0263    0.0041    0.0055    0.0026    0.0461    0.0405    0.0041
          29   -0.0088    0.0113    0.0053    0.0024   -0.0008   -0.0084    0.0003   -0.0032
          30   -0.0023   -0.0027    0.0027   -0.0012   -0.0011   -0.0153   -0.0044   -0.0037
          31    0.0194   -0.0336   -0.0196    0.0002    0.0008    0.0040    0.0014   -0.0005
          32   -0.0059    0.0070    0.0028    0.0020    0.0000   -0.0017   -0.0003   -0.0002
          33   -0.0016   -0.0058    0.0043   -0.0033   -0.0013   -0.0267    0.0015   -0.0088
          34   -0.0025   -0.0091   -0.0221    0.0144   -0.0034   -0.0660   -0.1643    0.0174
          35   -0.0065    0.0132   -0.0131    0.0155   -0.0021   -0.0074   -0.1258    0.0286
          36    0.0001    0.0044    0.0026   -0.0011   -0.0004    0.0076   -0.0027    0.0039
          37    0.0010    0.0081   -0.0257    0.0177    0.0113    0.0583    0.1665   -0.0276
          38   -0.0115    0.0021    0.0006    0.0058    0.0043   -0.0003    0.1266   -0.0321
          39    0.0020    0.0015   -0.0061    0.0034    0.0013    0.0069   -0.0024    0.0016
          40    0.0043    0.0180    0.0627   -0.0540   -0.0086   -0.1302    0.0419   -0.0543
          41    0.0067   -0.0166    0.0132   -0.0219   -0.0003   -0.0752    0.0741   -0.0444
          42   -0.0001   -0.0032   -0.0064    0.0038    0.0020    0.0032    0.0079   -0.0007
          43    0.0067    0.0433    0.0196   -0.0150    0.0008    0.1422   -0.0437    0.0571
          44    0.0140    0.0120   -0.0177    0.0038    0.0028    0.0832   -0.0732    0.0436
          45   -0.0019   -0.0005    0.0062   -0.0030   -0.0012    0.0047    0.0070    0.0004
          46    0.0170   -0.0202   -0.0475    0.0208    0.0066   -0.0571   -0.0213   -0.0167
          47    0.0876    0.0736   -0.0860    0.0238    0.0334   -0.0169   -0.0071   -0.0317
          48   -0.0130   -0.0145    0.0124   -0.0044   -0.0060   -0.0099   -0.0097    0.0054
          49    0.0168   -0.0373   -0.0599    0.0258    0.0097    0.0425    0.0235    0.0086
[...]
     887     -23.53849     92.30166         68.76317  75.03149   194   %  7.3065
     892     -23.61210     93.20778         69.59569  75.86401   195   %  7.3247
     899     -23.64405     93.85897         70.21491  76.48323   196   %  7.3442
     905     -23.64403     94.31852         70.67449  76.94281   197   %  7.3546
     911     -23.64395     94.81618         71.17222  77.44054   198   %  7.3661
     917     -23.64271     95.36831         71.72560  77.99391   199   %  7.3781
     922     -23.58644     95.92200         72.33556  78.60388   200   %  7.3852
     928     -23.58094     96.63619         73.05526  79.32357   201   %  7.3995
     934     -23.57007     97.45866         73.88858  80.15690   202   %  7.4146


 IRC CALCULATION COMPLETE 
           INITIAL VELOCITY IN DRC (Angstroms/Femtosecond)
        -0.00036        -0.00025         0.00006
        -0.00060         0.00034        -0.00014
        -0.00502        -0.00429        -0.00019
         0.01641         0.03975         0.00478
         0.00015         0.00010        -0.00023
         0.00017         0.00012        -0.00006
         0.00138        -0.00657        -0.00313
         0.00975         0.04090         0.00963
         0.00042        -0.00001        -0.00019
         0.00035        -0.00013         0.00023
        -0.00012         0.00010         0.00006
         0.00054         0.00060        -0.00100
         0.00072         0.00063         0.00070
        -0.00040        -0.00231        -0.00009
        -0.00248        -0.00262        -0.00129
        -0.01806        -0.06559        -0.00262
        -0.01750        -0.06159        -0.01289
        -0.01904        -0.06509        -0.00578
        -0.00037        -0.00003         0.00067
        -0.00039        -0.00052         0.00039
         0.00003        -0.00026         0.00002
         0.00001        -0.00063         0.00062
        -0.00047        -0.00088        -0.00030
        -0.00088        -0.00120        -0.00154
         0.00220         0.00027        -0.00433
        -0.18081        -0.57450        -0.08683
        -0.02437        -0.06150        -0.01354

 GEOMETRY PRIORITY, STEP = 0.1000 ANGSTROMS



     POINT   POTENTIAL  +  ENERGY LOST   =   TOTAL      ERROR    REF%   MOVEMENT
       1      -0.58865      0.00000         -0.58865   0.00000     1   %  0.0000
       2      -6.48780      0.00000         -6.48780  -5.89915     2   %  0.3881
       5      -7.56289      0.56426         -6.99863  -0.51083     3   %  0.4385
       9      -8.62821      1.61989         -7.00832  -0.52052     4   %  0.4968
      13      -9.74711      2.73185         -7.01527  -0.52747     5   %  0.5804
      17     -10.77282      3.75240         -7.02042  -0.53262     6   %  0.6665
      21     -11.72633      4.70106         -7.02526  -0.53746     7   %  0.7529
      25     -12.60720      5.57731         -7.02989  -0.54209     8   %  0.8390
      30     -13.45455      6.42075         -7.03380  -0.54599     9   %  0.9289
      34     -14.25772      7.22070         -7.03701  -0.54921    10   %  1.0189
      38     -15.02274      7.98329         -7.03945  -0.55165    11   %  1.1080
      42     -15.71888      8.67725         -7.04163  -0.55383    12   %  1.1922
      46     -16.33874      9.29519         -7.04356  -0.55576    13   %  1.2725
      50     -16.89818      9.85299         -7.04519  -0.55739    14   %  1.3488
      53     -17.40548     10.35873         -7.04675  -0.55895    15   %  1.4212
      57     -17.87131     10.82322         -7.04809  -0.56029    16   %  1.4910
      60     -18.29838     11.24904         -7.04934  -0.56154    17   %  1.5583
      64     -18.69481     11.64429         -7.05052  -0.56272    18   %  1.6241
      67     -19.06126     12.00965         -7.05161  -0.56381    19   %  1.6884
      71     -19.40113     12.34843         -7.05270  -0.56490    20   %  1.7517
      74     -19.71731     12.66358         -7.05373  -0.56593    21   %  1.8144
      77     -20.01179     12.95708         -7.05472  -0.56692    22   %  1.8769
      80     -20.28636     13.23069         -7.05567  -0.56787    23   %  1.9395
      84     -20.54297     13.48639         -7.05658  -0.56878    24   %  2.0027
      87     -20.78225     13.72475         -7.05750  -0.56970    25   %  2.0708
      90     -21.00540     13.94703         -7.05837  -0.57057    26   %  2.1556
      93     -21.21426     14.15508         -7.05919  -0.57139    27   %  2.2425
      96     -21.40989     14.35027         -7.05962  -0.57182    28   %  2.3304
      99     -21.56562     14.52056         -7.04506  -0.55725    29   %  2.4065
     101     -21.65042     14.64453         -7.00589  -0.51809    30   %  2.4501
     104     -21.78416     14.87475         -6.90942  -0.42161    31   %  2.5220
     107     -21.88115     15.05292         -6.82822  -0.34042    32   %  2.5773
     110     -21.97243     15.22948         -6.74295  -0.25515    33   %  2.6308
     112     -22.05809     15.40366         -6.65443  -0.16663    34   %  2.6810
     115     -22.14122     15.58186         -6.55936  -0.07156    35   %  2.7354
     118     -22.21870     15.75542         -6.46328   0.02452    36   %  2.7837
     121     -22.29363     15.93318         -6.36045   0.12735    37   %  2.8359
     124     -22.36489     16.10686         -6.25803   0.22977    38   %  2.8838
     127     -22.43239     16.28450         -6.14789   0.33991    39   %  2.9344
     130     -22.49765     16.46005         -6.03760   0.45020    40   %  2.9809
     133     -22.55885     16.63994         -5.91891   0.56889    41   %  3.0302
     136     -22.61755     16.81671         -5.80084   0.68696    42   %  3.0748
     140     -22.67322     16.99928         -5.67394   0.81386    43   %  3.1224
     143     -22.72749     17.17802         -5.54947   0.93833    44   %  3.1671
     146     -22.77876     17.35948         -5.41928   1.06852    45   %  3.2116
     149     -22.82671     17.54219         -5.28453   1.20327    46   %  3.2567
     152     -22.87575     17.72381         -5.15194   1.33586    47   %  3.2993
     156     -22.91907     17.90805         -5.01102   1.47678    48   %  3.3425
     159     -22.96068     18.09225         -4.86843   1.61938    49   %  3.3852
     162     -23.00372     18.27731         -4.72641   1.76139    50   %  3.4257
     166     -23.04159     18.46343         -4.57816   1.90964    51   %  3.4667
     169     -23.07705     18.64973         -4.42732   2.06048    52   %  3.5072
     173     -23.11392     18.83583         -4.27809   2.20971    53   %  3.5463
     176     -23.13908     18.98720         -4.15187   2.33593    54   %  3.5778
     180     -23.17594     19.20592         -3.97002   2.51778    55   %  3.6219
     183     -23.20720     19.36523         -3.84197   2.64583    56   %  3.6531
     187     -23.24104     19.58281         -3.65823   2.82957    57   %  3.6952
     190     -23.26037     19.74902         -3.51136   2.97644    58   %  3.7270
     194     -23.29091     19.96561         -3.32530   3.16250    59   %  3.7672
     197     -23.31821     20.12317         -3.19504   3.29276    60   %  3.7958
     201     -23.34638     20.33761         -3.00877   3.47904    61   %  3.8345
     204     -23.36030     20.50267         -2.85763   3.63017    62   %  3.8636
     208     -23.38527     20.71978         -2.66550   3.82230    63   %  3.9008
     212     -23.40972     20.93323         -2.47648   4.01132    64   %  3.9370
     215     -23.43390     21.09130         -2.34260   4.14520    65   %  3.9630
     219     -23.45642     21.30857         -2.14784   4.33996    66   %  3.9979
     222     -23.46463     21.47418         -1.99045   4.49735    67   %  4.0242
     226     -23.48505     21.69036         -1.79468   4.69312    68   %  4.0578
     230     -23.50433     21.90509         -1.59924   4.88856    69   %  4.0907
     233     -23.52695     22.06405         -1.46291   5.02489    70   %  4.1144
     237     -23.54494     22.27935         -1.26559   5.22221    71   %  4.1463
     241     -23.56252     22.49845         -1.06407   5.42373    72   %  4.1775
     244     -23.56477     22.66478         -0.89999   5.58781    73   %  4.2012
     248     -23.58034     22.88323         -0.69711   5.79069    74   %  4.2315
     251     -23.60337     23.04471         -0.55866   5.92914    75   %  4.2533
     255     -23.61846     23.26327         -0.35519   6.13261    76   %  4.2829
     259     -23.63286     23.48257         -0.15029   6.33751    77   %  4.3118
     262     -23.63062     23.65344          0.02283   6.51063    78   %  4.3338
     266     -23.64364     23.87457          0.23093   6.71873    79   %  4.3621
     270     -23.65625     24.09613          0.43988   6.92768    80   %  4.3899
     273     -23.68003     24.25936          0.57932   7.06712    81   %  4.4097
     277     -23.69262     24.48667          0.79405   7.28185    82   %  4.4367
     281     -23.70467     24.71263          1.00796   7.49576    83   %  4.4634
     285     -23.71647     24.94173          1.22526   7.71307    84   %  4.4900
     288     -23.70723     25.11932          1.41209   7.89989    85   %  4.5109
     292     -23.71787     25.34688          1.62901   8.11681    86   %  4.5368
     296     -23.72820     25.57904          1.85084   8.33864    87   %  4.5623
     299     -23.75442     25.74576          1.99134   8.47914    88   %  4.5803
     303     -23.76425     25.97278          2.20852   8.69632    89   %  4.6051
     307     -23.77374     26.19947          2.42573   8.91353    90   %  4.6292
     311     -23.78308     26.42812          2.64504   9.13284    91   %  4.6529
     314     -23.77201     26.60704          2.83503   9.32283    92   %  4.6710
     318     -23.78056     26.83859          3.05803   9.54583    93   %  4.6942
     322     -23.78878     27.06866          3.27988   9.76769    94   %  4.7171
     325     -23.81362     27.23620          3.42259   9.91039    95   %  4.7335
     329     -23.82185     27.46846          3.64660  10.13440    96   %  4.7560
     333     -23.82982     27.69870          3.86888  10.35668    97   %  4.7781
     337     -23.83764     27.93255          4.09491  10.58271    98   %  4.8001
     340     -23.82364     28.11219          4.28854  10.77634    99   %  4.8169
     344     -23.83098     28.34289          4.51192  10.99972   100   %  4.8383
     348     -23.83847     28.57307          4.73460  11.22240   101   %  4.8594
     352     -23.84452     28.80760          4.96309  11.45089   102   %  4.8803
     355     -23.87020     28.97601          5.10581  11.59361   103   %  4.8954
     359     -23.87692     29.20699          5.33007  11.81787   104   %  4.9158
     363     -23.88357     29.44592          5.56235  12.05015   105   %  4.9360
     367     -23.89008     29.69012          5.80004  12.28784   106   %  4.9563
     370     -23.86958     29.88909          6.01951  12.50731   107   %  4.9725
     374     -23.87639     30.13905          6.26267  12.75047   108   %  4.9928
     378     -23.88303     30.38594          6.50292  12.99072   109   %  5.0128
     381     -23.91219     30.56123          6.64904  13.13684   110   %  5.0270
     385     -23.91804     30.81076          6.89272  13.38052   111   %  5.0465
     389     -23.92382     31.06696          7.14314  13.63094   112   %  5.0661
     393     -23.92962     31.32843          7.39881  13.88661   113   %  5.0858
     397     -23.93531     31.59081          7.65550  14.14330   114   %  5.1054
     400     -23.91183     31.79721          7.88539  14.37319   115   %  5.1207
     404     -23.91620     32.06381          8.14761  14.63541   116   %  5.1401
     408     -23.92035     32.33474          8.41438  14.90219   117   %  5.1593
     412     -23.92557     32.60448          8.67891  15.16671   118   %  5.1785
     415     -23.95973     32.79570          8.83597  15.32377   119   %  5.1920
     419     -23.96456     33.07365          9.10909  15.59689   120   %  5.2109
     423     -23.96955     33.36253          9.39298  15.88078   121   %  5.2301
     427     -23.97504     33.64541          9.67036  16.15816   122   %  5.2492
     431     -23.97939     33.93904          9.95965  16.44745   123   %  5.2679
     435     -23.98388     34.24559         10.26171  16.74951   124   %  5.2870
     439     -23.98838     34.56131         10.57293  17.06073   125   %  5.3063
     442     -23.95293     34.82252         10.86958  17.35739   126   %  5.3222
     446     -23.95764     35.15048         11.19284  17.68064   127   %  5.3415
     450     -23.96029     35.48634         11.52605  18.01385   128   %  5.3607
     454     -23.96456     35.82365         11.85909  18.34689   129   %  5.3801
     458     -23.96818     36.16554         12.19737  18.68517   130   %  5.3992
     462     -23.96825     36.53023         12.56198  19.04978   131   %  5.4187
     466     -23.96929     36.91687         12.94757  19.43538   132   %  5.4385
     471     -24.02288     37.37671         13.35382  19.84162   133   %  5.4618
     475     -24.02670     37.78864         13.76194  20.24974   134   %  5.4818
     479     -24.02999     38.22010         14.19011  20.67791   135   %  5.5020
     483     -24.03411     38.66166         14.62755  21.11535   136   %  5.5223
     488     -23.98439     39.29056         15.30617  21.79397   137   %  5.5500
     492     -23.98883     39.76978         15.78095  22.26875   138   %  5.5707
     496     -23.99039     40.25750         16.26711  22.75491   139   %  5.5913
     501     -24.05209     40.82745         16.77537  23.26317   140   %  5.6148
     505     -24.05519     41.32395         17.26876  23.75656   141   %  5.6351
     510     -23.99950     42.05421         18.05471  24.54251   142   %  5.6631
     515     -24.06327     42.70175         18.63848  25.12628   143   %  5.6869
     519     -24.06475     43.30622         19.24147  25.72927   144   %  5.7079
     523     -24.06656     43.95791         19.89135  26.37915   145   %  5.7294
     528     -23.98813     44.99935         21.01122  27.49902   146   %  5.7604
     533     -24.06618     45.25822         21.19204  27.67984   147   %  5.7782
     538     -24.10126     45.59658         21.49532  27.98312   148   %  5.7948
     543     -24.07009     45.96505         21.89496  28.38277   149   %  5.8118
     547     -24.06984     46.26065         22.19081  28.67861   150   %  5.8256
     552     -24.10879     46.64001         22.53123  29.01903   151   %  5.8432
     556     -24.11082     46.97486         22.86405  29.35185   152   %  5.8578
     561     -24.07359     47.41399         23.34040  29.82820   153   %  5.8766
     566     -24.11732     47.81159         23.69427  30.18207   154   %  5.8945
     570     -24.11913     48.17503         24.05590  30.54370   155   %  5.9093
     574     -24.12113     48.54181         24.42068  30.90848   156   %  5.9242
     579     -24.07349     49.06876         24.99527  31.48307   157   %  5.9440
     583     -24.07147     49.49440         25.42293  31.91073   158   %  5.9598
     588     -24.12384     50.03411         25.91027  32.39807   159   %  5.9789
     592     -24.12613     50.53119         26.40507  32.89287   160   %  5.9956
     597     -24.06856     51.26500         27.19644  33.68424   161   %  6.0185
     602     -24.13005     51.89950         27.76946  34.25726   162   %  6.0384
     606     -24.13133     52.48508         28.35376  34.84156   163   %  6.0558
     611     -24.06848     53.34736         29.27888  35.76668   164   %  6.0798
     616     -24.13149     54.11279         29.98130  36.46910   165   %  6.1003
     620     -24.13311     54.87409         30.74098  37.22878   166   %  6.1190
     625     -24.06728     55.87823         31.81095  38.29875   167   %  6.1441
     630     -24.13614     56.73582         32.59968  39.08748   168   %  6.1646
     635     -24.16925     56.95919         32.78994  39.27774   169   %  6.1798
     640     -24.13615     57.32687         33.19072  39.67852   170   %  6.1929
     645     -24.17245     57.67793         33.50547  39.99328   171   %  6.2072
     650     -24.13623     58.08454         33.94831  40.43611   172   %  6.2211
     654     -24.13648     58.40434         34.26785  40.75565   173   %  6.2328
     659     -24.17675     58.79872         34.62197  41.10977   174   %  6.2479
     664     -24.13375     59.26311         35.12936  41.61716   175   %  6.2629
     668     -24.13023     59.64121         35.51098  41.99878   176   %  6.2753
     673     -24.17950     60.10325         35.92375  42.41155   177   %  6.2912
     677     -24.18023     60.52337         36.34313  42.83093   178   %  6.3042
     682     -24.12596     61.10808         36.98212  43.46992   179   %  6.3210
     687     -24.18087     61.66317         37.48231  43.97011   180   %  6.3374
     691     -24.18182     62.16960         37.98778  44.47558   181   %  6.3514
     696     -24.12489     62.87421         38.74932  45.23712   182   %  6.3697
     701     -24.18601     63.46424         39.27823  45.76603   183   %  6.3862
     705     -24.18458     64.01828         39.83370  46.32150   184   %  6.4001
     710     -24.12061     64.85909         40.73849  47.22629   185   %  6.4195
     715     -24.18228     65.59533         41.41305  47.90085   186   %  6.4367
     720     -24.20861     66.38928         42.18067  48.66847   187   %  6.4564
     725     -24.17737     66.69321         42.51584  49.00364   188   %  6.4670
     730     -24.21186     67.03350         42.82165  49.30945   189   %  6.4792
     735     -24.17583     67.41667         43.24085  49.72865   190   %  6.4902
     740     -24.21426     67.77598         43.56172  50.04952   191   %  6.5031
     744     -24.21485     68.08153         43.86668  50.35448   192   %  6.5128
     749     -24.17219     68.51987         44.34768  50.83548   193   %  6.5247
     753     -24.16790     68.88538         44.71748  51.20528   194   %  6.5353
     758     -24.21305     69.36399         45.15094  51.63874   195   %  6.5494
     763     -24.15331     69.98805         45.83474  52.32254   196   %  6.5643
     767     -24.14748     70.52932         46.38184  52.86964   197   %  6.5769
     772     -24.20533     71.22127         47.01595  53.50375   198   %  6.5927
     777     -24.12330     72.23015         48.10684  54.59464   199   %  6.6114
     782     -24.19866     72.48553         48.28687  54.77467   200   %  6.6234
     787     -24.23116     72.82561         48.59445  55.08225   201   %  6.6344
     791     -24.23181     73.11389         48.88209  55.36989   202   %  6.6430
     796     -24.19413     73.51711         49.32297  55.81077   203   %  6.6533
     801     -24.23276     73.89836         49.66560  56.15340   204   %  6.6656
     806     -24.18901     74.35261         50.16360  56.65140   205   %  6.6767
     810     -24.18464     74.72336         50.53871  57.02652   206   %  6.6866
     815     -24.23145     75.19419         50.96273  57.45053   207   %  6.6998
     819     -24.23187     75.62650         51.39463  57.88243   208   %  6.7104
     824     -24.17366     76.24697         52.07331  58.56111   209   %  6.7239
     829     -24.22801     76.83867         52.61066  59.09846   210   %  6.7379
     833     -24.22461     77.43685         53.21224  59.70004   211   %  6.7498
     838     -24.15618     78.37256         54.21638  60.70418   212   %  6.7665


           POTENTIAL ENERGY HAS STOPPED DROPPING


 **********************
 *                    *
 * JOB ENDED NORMALLY *
 *                    *
 **********************



 TOTAL JOB TIME:            23.69 SECONDS

 == MOPAC DONE ==
