 *******************************************************************************
 ** Site#: 37037        For non-commercial use only           Version 21.158W **
 *******************************************************************************
 ** Cite this program as: MOPAC2016, Version: 21.158W, James J. P. Stewart,   **
 ** Stewart Computational Chemistry, web: HTTP://OpenMOPAC.net. Days left: 363**
 *******************************************************************************
 **                                                                           **
 **                                MOPAC2016                                  **
 **                                                                           **
 *******************************************************************************

                              PM7 CALCULATION RESULTS

 *******************************************************************************
 *  CALCULATION DONE:                                Wed Jun  9 11:58:52 2021  *
 *  SYMMETRY   - SYMMETRY CONDITIONS TO BE IMPOSED
 *  T=         - A TIME OF 172800.0 SECONDS REQUESTED
 *  DUMP=N     - RESTART FILE WRITTEN EVERY 7200.0 SECONDS REQUESTED
 *******************************************************************************



                    PARAMETER DEPENDENCE DATA

        REFERENCE ATOM      FUNCTION NO.    DEPENDENT ATOM(S)
            2                  1               3

             DESCRIPTIONS OF THE FUNCTIONS USED
   1      BOND LENGTH    IS SET EQUAL TO THE REFERENCE BOND LENGTH   
 
      symmetry
      Transition state for 2-Methyl hexa-3,5-diene <=> 2-Methyl hexa-2,4-diene

  ATOM    CHEMICAL      BOND LENGTH      BOND ANGLE     TWIST ANGLE 
 NUMBER    SYMBOL       (ANGSTROMS)      (DEGREES)       (DEGREES) 
   (I)                     NA:I           NB:NA:I       NC:NB:NA:I       NA    NB    NC 
     1       C          0.00000000       0.0000000       0.0000000        0     0     0
     2       H          1.40000000  *    0.0000000       0.0000000        1     0     0
     3       C          1.40000000     128.0000500  *    0.0000000        2     1     0
     4       C          1.40000000  *   99.9999980  *   54.9999770  *     3     2     1
     5       C          1.54000000  *   84.0000010  *   64.9999920  *     1     2     3
     6       C          1.54000000  *  113.9999960  *  109.9999890  *     1     2     5
     7       H          2.10000000  *  118.9999970  *  111.0000290  *     1     2     6
     8       H          2.10000000  *  148.9999890  *  -34.9999890  *     4     3     2
     9       H          1.00000000  *  118.0000060  *  174.9999860  *     4     3     8
    10       H          1.00000000  *   85.9999940  * -118.9999930  *     3     2     4
    11       H          1.00000000  *  112.9999890  * -111.9999850  *     3     2    10
    12       C          1.00000000  *   34.0000100  *   45.9999930  *     7     1     2
    13       C          1.00000000  *   34.0000050  *    9.0000100  *     8     4     3
    14       H          1.09000000  *  109.4712220  *    0.0000040  *     5     1     2
    15       H          1.09000000  *  109.4712200  *  119.9999970  *     5     1    14
    16       H          1.09000000  *  109.4712240  *  119.9999980  *     5     1    15
    17       H          1.09000000  *  109.4712150  *   -0.0000010  *     6     1     2
    18       H          1.09000000  *  109.4712160  *  120.0000000  *     6     1    17
    19       H          1.09000000  *  109.4712160  *  120.0000010  *     6     1    18
 


          CARTESIAN COORDINATES 

    NO.       ATOM           X           Y           Z

     1         C          0.0000      0.0000      0.0000
     2         H          1.4000      0.0000      0.0000
     3         C          2.2619      1.1032      0.0000
     4         C          1.7884      1.7817      1.1294
     5         C          0.1610      0.6473     -1.3881
     6         C         -0.6264     -1.4015     -0.1226
     7         H         -1.0181      0.5063      1.7656
     8         H          0.1725      2.3336      2.3517
     9         H          2.4592      2.2064      1.7374
    10         H          1.8744      1.3175     -0.8966
    11         H          3.2261      0.8458     -0.0642
    12         C         -0.2764      0.7450      1.1387
    13         C          0.4777      1.7656      1.5873
    14         H          1.2210      0.7546     -1.6182
    15         H         -0.3121      0.0161     -2.1404
    16         H         -0.3121      1.6293     -1.3881
    17         H          0.1647     -2.1486     -0.1880
    18         H         -1.2436     -1.6015      0.7533
    19         H         -1.2436     -1.4464     -1.0199

 General Reference for PM7:
 "Optimization of Parameters for Semiempirical Methods VI: More Modifications to the 
 NDDO Approximations and Re-optimization of Parameters", J. J. P. Stewart, J. Mol. Mod., 1:32, 19 (2013)
 https://link.springer.com/article/10.1007/s00894-012-1667-x

           Empirical Formula: C7 H12  =    19 atoms



      MOLECULAR POINT GROUP   :   C1  


      RHF CALCULATION, NO. OF DOUBLY OCCUPIED LEVELS = 20


          Geometry optimization using EF

          DIAGONAL MATRIX USED AS START HESSIAN

 CYCLE:     1 TIME:   0.000 TIME LEFT:  2.00D  GRAD.:   618.599 HEAT:  99.91061
 CYCLE:     2 TIME:   0.031 TIME LEFT:  2.00D  GRAD.:   384.941 HEAT:  89.21771
 CYCLE:     3 TIME:   0.000 TIME LEFT:  2.00D  GRAD.:   210.753 HEAT:  75.61711
 CYCLE:     4 TIME:   0.016 TIME LEFT:  2.00D  GRAD.:   132.816 HEAT:  65.36945
 CYCLE:     5 TIME:   0.000 TIME LEFT:  2.00D  GRAD.:   185.511 HEAT:  59.20770
 CYCLE:     6 TIME:   0.016 TIME LEFT:  2.00D  GRAD.:    66.967 HEAT:  55.87367
 CYCLE:     7 TIME:   0.000 TIME LEFT:  2.00D  GRAD.:   110.613 HEAT:  55.36479
 CYCLE:     8 TIME:   0.016 TIME LEFT:  2.00D  GRAD.:    88.082 HEAT:  54.14877
 CYCLE:     9 TIME:   0.016 TIME LEFT:  2.00D  GRAD.:   124.957 HEAT:  53.99012
 CYCLE:    10 TIME:   0.000 TIME LEFT:  2.00D  GRAD.:    14.533 HEAT:  53.12864
 CYCLE:    11 TIME:   0.016 TIME LEFT:  2.00D  GRAD.:    18.925 HEAT:  52.92270
 CYCLE:    12 TIME:   0.000 TIME LEFT:  2.00D  GRAD.:     9.078 HEAT:  52.80407
 CYCLE:    13 TIME:   0.000 TIME LEFT:  2.00D  GRAD.:     7.214 HEAT:  52.71408
 CYCLE:    14 TIME:   0.016 TIME LEFT:  2.00D  GRAD.:    19.687 HEAT:  52.64564
 CYCLE:    15 TIME:   0.000 TIME LEFT:  2.00D  GRAD.:     7.480 HEAT:  52.56936
 CYCLE:    16 TIME:   0.016 TIME LEFT:  2.00D  GRAD.:     9.534 HEAT:  52.49401
 CYCLE:    17 TIME:   0.000 TIME LEFT:  2.00D  GRAD.:    20.647 HEAT:  52.25171
 CYCLE:    18 TIME:   0.016 TIME LEFT:  2.00D  GRAD.:    14.029 HEAT:  52.09729
 CYCLE:    19 TIME:   0.000 TIME LEFT:  2.00D  GRAD.:    71.629 HEAT:  51.78565
 CYCLE:    20 TIME:   0.000 TIME LEFT:  2.00D  GRAD.:    18.608 HEAT:  51.37095
 CYCLE:    21 TIME:   0.016 TIME LEFT:  2.00D  GRAD.:    11.618 HEAT:  51.08205
 CYCLE:    22 TIME:   0.000 TIME LEFT:  2.00D  GRAD.:    27.645 HEAT:  50.57429
 CYCLE:    23 TIME:   0.016 TIME LEFT:  2.00D  GRAD.:    12.613 HEAT:  50.28734
 CYCLE:    24 TIME:   0.000 TIME LEFT:  2.00D  GRAD.:     4.304 HEAT:  50.22458
 CYCLE:    25 TIME:   0.016 TIME LEFT:  2.00D  GRAD.:     9.566 HEAT:  50.13830
 CYCLE:    26 TIME:   0.000 TIME LEFT:  2.00D  GRAD.:     4.653 HEAT:  50.09856
 CYCLE:    27 TIME:   0.016 TIME LEFT:  2.00D  GRAD.:     6.116 HEAT:  50.08923
 CYCLE:    28 TIME:   0.000 TIME LEFT:  2.00D  GRAD.:     7.163 HEAT:  50.02249
 CYCLE:    29 TIME:   0.000 TIME LEFT:  2.00D  GRAD.:    23.248 HEAT:  49.96789
 CYCLE:    30 TIME:   0.016 TIME LEFT:  2.00D  GRAD.:     4.186 HEAT:  49.73852
 CYCLE:    31 TIME:   0.000 TIME LEFT:  2.00D  GRAD.:     5.100 HEAT:  49.68191
 CYCLE:    32 TIME:   0.016 TIME LEFT:  2.00D  GRAD.:     8.239 HEAT:  49.64165
 CYCLE:    33 TIME:   0.016 TIME LEFT:  2.00D  GRAD.:     2.961 HEAT:  49.63269
 CYCLE:    34 TIME:   0.016 TIME LEFT:  2.00D  GRAD.:    13.544 HEAT:  49.62200
 CYCLE:    35 TIME:   0.000 TIME LEFT:  2.00D  GRAD.:     2.963 HEAT:  49.61143
 CYCLE:    36 TIME:   0.016 TIME LEFT:  2.00D  GRAD.:     2.323 HEAT:  49.60697
 CYCLE:    37 TIME:   0.000 TIME LEFT:  2.00D  GRAD.:     4.457 HEAT:  49.60549
 CYCLE:    38 TIME:   0.016 TIME LEFT:  2.00D  GRAD.:     2.517 HEAT:  49.60737
 CYCLE:    39 TIME:   0.000 TIME LEFT:  2.00D  GRAD.:     0.906 HEAT:  49.60134

     GRADIENT =  0.90625 IS LESS THAN CUTOFF =  1.00000



 -------------------------------------------------------------------------------
 symmetry
      Transition state for 2-Methyl hexa-3,5-diene <=> 2-Methyl hexa-2,4-diene



     GEOMETRY OPTIMISED USING EIGENVECTOR FOLLOWING (EF).     
     SCF FIELD WAS ACHIEVED                                   


                              PM7 CALCULATION
                                                       MOPAC2016 (Version: 21.158W)
                                                       Wed Jun  9 11:58:52 2021
                                                       No. of days remaining = 363




          FINAL HEAT OF FORMATION =         49.60125 KCAL/MOL =     207.53165 KJ/MOL


          TOTAL ENERGY            =      -1019.43500 EV
          ELECTRONIC ENERGY       =      -4984.31477 EV  POINT GROUP:     C1  
          CORE-CORE REPULSION     =       3964.87977 EV
          COSMO AREA              =        152.59 SQUARE ANGSTROMS
          COSMO VOLUME            =        149.41 CUBIC ANGSTROMS

          GRADIENT NORM           =          0.90625 = 0.20791 PER ATOM
          IONIZATION POTENTIAL    =          8.351549 EV
          HOMO LUMO ENERGIES (EV) =         -8.352 -0.051
          NO. OF FILLED LEVELS    =         20
          MOLECULAR WEIGHT        =         96.1718

          MOLECULAR DIMENSIONS (Angstroms)

            Atom       Atom       Distance
            H    19    H     9     5.83245
            H    11    H     8     4.25513
            H    16    H    18     4.09956


          SCF CALCULATIONS        =         50
 
          WALL-CLOCK TIME         =          0.437 SECONDS
          COMPUTATION TIME        =          1.281 SECONDS




  ATOM    CHEMICAL      BOND LENGTH      BOND ANGLE     TWIST ANGLE 
 NUMBER    SYMBOL       (ANGSTROMS)      (DEGREES)       (DEGREES) 
   (I)                     NA:I           NB:NA:I       NC:NB:NA:I       NA    NB    NC 
     1       C          0.00000000       0.0000000       0.0000000        0     0     0
     2       H          1.45701693  *    0.0000000       0.0000000        1     0     0
     3       C          1.45701693     131.2757319  *    0.0000000        2     1     0
     4       C          1.38214985  *  100.0644891  *   54.9041970  *     3     2     1
     5       C          1.51327738  *  100.8285838  *   71.3977341  *     1     2     3
     6       C          1.50821891  *  108.5565887  *  119.1914972  *     1     2     5
     7       H          2.17163649  *  123.4824547  *  105.8546104  *     1     2     6
     8       H          2.15571418  *  148.1351678  *  -44.8561697  *     4     3     2
     9       H          1.09174667  *  119.7317066  *  177.5945508  *     4     3     8
    10       H          1.08768752  *   82.8353462  * -122.0070330  *     3     2     4
    11       H          1.08382680  *  112.2019528  * -109.8740894  *     3     2    10
    12       C          1.09136282  *   36.2547235  *   36.0161646  *     7     1     2
    13       C          1.08908281  *   35.3963766  *   18.1131128  *     8     4     3
    14       H          1.09546012  *  112.1465310  *   55.6355393  *     5     1     2
    15       H          1.09943000  *  110.1596280  *  119.4709134  *     5     1    14
    16       H          1.09785590  *  112.2313730  *  118.4011427  *     5     1    15
    17       H          1.09671356  *  111.4577632  *  -57.7460089  *     6     1     2
    18       H          1.09674256  *  111.5837079  *  119.9701263  *     6     1    17
    19       H          1.09796445  *  111.8593947  *  120.2149886  *     6     1    18

                             CARTESIAN COORDINATES

   1    C        0.000000000     0.000000000     0.000000000
   2    H        1.457016929     0.000000000     0.000000000
   3    C        2.418186817     1.095011770     0.000000000
   4    C        1.989494695     1.792696854     1.113461633
   5    C       -0.284301445     0.474134958    -1.408679228
   6    C       -0.479977279    -1.405456578     0.262750652
   7    H       -1.198051900     0.806592793     1.621753601
   8    H        0.343138643     2.606630759     2.242233958
   9    H        2.716190076     2.123629601     1.857980365
  10    H        2.013129097     1.270054437    -0.994159165
  11    H        3.441460471     0.741754193    -0.052921098
  12    C       -0.277125499     0.947767145     1.053390015
  13    C        0.621950138     1.894097212     1.467210432
  14    H        0.200635434    -0.155945292    -2.162249384
  15    H       -1.365488785     0.447783555    -1.606380701
  16    H        0.035794756     1.511788039    -1.570240592
  17    H       -0.091254757    -2.108341925    -0.483994038
  18    H       -0.157819778    -1.764268757     1.247795120
  19    H       -1.575242785    -1.475894465     0.231800633


           Empirical Formula: C7 H12  =    19 atoms



      MOLECULAR POINT GROUP   :   C1  


                  EIGENVALUES  
 -29.90652 -27.11106 -25.10409 -23.96898 -21.95884 -19.08767 -18.00884 -16.46708
 -15.15688 -14.88545 -14.36225 -14.04770 -13.39325 -13.08120 -12.44547 -12.15400
 -12.07030 -11.72641  -9.62397  -8.35155  -0.05087   1.36938   4.42322   4.51757
   4.60050   4.92531   5.27657   5.47746   5.77919   5.86797   5.87997   5.90379
   5.96692   6.08316   6.26668   6.35176   6.42239   6.61125   7.02590   7.13058


              NET ATOMIC CHARGES AND DIPOLE CONTRIBUTIONS

  ATOM NO.   TYPE          CHARGE      No. of ELECS.   s-Pop       p-Pop       
    1          C          -0.135224        4.1352     1.07580     3.05942
    2          H           0.238371        0.7616     0.76163
    3          C          -0.404112        4.4041     1.08454     3.31958
    4          C          -0.094557        4.0946     1.08632     3.00824
    5          C          -0.431646        4.4316     1.05161     3.38003
    6          C          -0.450519        4.4505     1.05143     3.39909
    7          H           0.142705        0.8573     0.85730
    8          H           0.149079        0.8509     0.85092
    9          H           0.143331        0.8567     0.85667
   10          H           0.166960        0.8330     0.83304
   11          H           0.144638        0.8554     0.85536
   12          C          -0.112289        4.1123     1.09578     3.01651
   13          C          -0.229958        4.2300     1.07790     3.15206
   14          H           0.140887        0.8591     0.85911
   15          H           0.148596        0.8514     0.85140
   16          H           0.148138        0.8519     0.85186
   17          H           0.145339        0.8547     0.85466
   18          H           0.144191        0.8558     0.85581
   19          H           0.146071        0.8539     0.85393
 DIPOLE           X         Y         Z       TOTAL
 POINT-CHG.     0.370    -0.509    -0.218     0.666
 HYBRID        -0.237    -0.076    -0.070     0.258
 SUM            0.133    -0.585    -0.288     0.665


          ATOMIC ORBITAL ELECTRON POPULATIONS

     Atom    s        px        py        pz   
    1  C   1.07580   1.14445   0.95519   0.95978
    2  H   0.76163
    3  C   1.08454   1.13626   1.09552   1.08779
    4  C   1.08632   1.01694   0.96764   1.02366
    5  C   1.05161   1.17067   1.15771   1.05165
    6  C   1.05143   1.16297   1.06705   1.16906
    7  H   0.85730
    8  H   0.85092
    9  H   0.85667
   10  H   0.83304
   11  H   0.85536
   12  C   1.09578   1.02703   0.96889   1.02059
   13  C   1.07790   0.99430   1.06924   1.08852
   14  H   0.85911
   15  H   0.85140
   16  H   0.85186
   17  H   0.85466
   18  H   0.85581
   19  H   0.85393
 *******************************************************************************
 ** Site#: 37037        For non-commercial use only           Version 21.158W **
 *******************************************************************************
 ** Cite this program as: MOPAC2016, Version: 21.158W, James J. P. Stewart,   **
 ** Stewart Computational Chemistry, web: HTTP://OpenMOPAC.net. Days left: 363**
 *******************************************************************************
 **                                                                           **
 **                                MOPAC2016                                  **
 **                                                                           **
 *******************************************************************************

                              PM7 CALCULATION RESULTS

 *******************************************************************************
 *  CALCULATION DONE:                                Wed Jun  9 11:58:52 2021  *
 *  OPT        - OPTIMIZE COORDINATES OF ALL ATOMS
 *  OLDGEO     - PREVIOUS GEOMETRY TO BE USED
 *  TS         - USE EF ROUTINE FOR TS SEARCH
 *  T=         - A TIME OF 172800.0 SECONDS REQUESTED
 *  DUMP=N     - RESTART FILE WRITTEN EVERY 7200.0 SECONDS REQUESTED
 *******************************************************************************
oldgeo ts opt
      Transition state for 2-Methyl hexa-3,5-diene <=> 2-Methyl hexa-2,4-diene
 Refine transition state
  ATOM    CHEMICAL      BOND LENGTH      BOND ANGLE     TWIST ANGLE 
 NUMBER    SYMBOL       (ANGSTROMS)      (DEGREES)       (DEGREES) 
   (I)                     NA:I           NB:NA:I       NC:NB:NA:I       NA    NB    NC 
     1       C          0.00000000       0.0000000       0.0000000        0     0     0
     2       H          1.45701693  *    0.0000000       0.0000000        1     0     0
     3       C          1.45701693  *  131.2757319  *    0.0000000        2     1     0
     4       C          1.38214985  *  100.0644891  *   54.9041970  *     3     2     1
     5       C          1.51327738  *  100.8285838  *   71.3977341  *     1     2     3
     6       C          1.50821891  *  108.5565887  *  119.1914972  *     1     2     5
     7       H          2.17163649  *  123.4824547  *  105.8546104  *     1     2     6
     8       H          2.15571418  *  148.1351678  *  -44.8561697  *     4     3     2
     9       H          1.09174667  *  119.7317066  *  177.5945508  *     4     3     8
    10       H          1.08768752  *   82.8353462  * -122.0070330  *     3     2     4
    11       H          1.08382680  *  112.2019528  * -109.8740894  *     3     2    10
    12       C          1.09136282  *   36.2547235  *   36.0161646  *     7     1     2
    13       C          1.08908281  *   35.3963766  *   18.1131128  *     8     4     3
    14       H          1.09546012  *  112.1465310  *   55.6355393  *     5     1     2
    15       H          1.09943000  *  110.1596280  *  119.4709134  *     5     1    14
    16       H          1.09785590  *  112.2313730  *  118.4011427  *     5     1    15
    17       H          1.09671356  *  111.4577632  *  -57.7460089  *     6     1     2
    18       H          1.09674256  *  111.5837079  *  119.9701263  *     6     1    17
    19       H          1.09796445  *  111.8593947  *  120.2149886  *     6     1    18
 


          CARTESIAN COORDINATES 

    NO.       ATOM           X           Y           Z

     1         C          0.0000      0.0000      0.0000
     2         H          1.4570      0.0000      0.0000
     3         C          2.4182      1.0950      0.0000
     4         C          1.9895      1.7927      1.1135
     5         C         -0.2843      0.4741     -1.4087
     6         C         -0.4800     -1.4055      0.2628
     7         H         -1.1981      0.8066      1.6218
     8         H          0.3431      2.6066      2.2422
     9         H          2.7162      2.1236      1.8580
    10         H          2.0131      1.2701     -0.9942
    11         H          3.4415      0.7418     -0.0529
    12         C         -0.2771      0.9478      1.0534
    13         C          0.6220      1.8941      1.4672
    14         H          0.2006     -0.1559     -2.1622
    15         H         -1.3655      0.4478     -1.6064
    16         H          0.0358      1.5118     -1.5702
    17         H         -0.0913     -2.1083     -0.4840
    18         H         -0.1578     -1.7643      1.2478
    19         H         -1.5752     -1.4759      0.2318

 General Reference for PM7:
 "Optimization of Parameters for Semiempirical Methods VI: More Modifications to the 
 NDDO Approximations and Re-optimization of Parameters", J. J. P. Stewart, J. Mol. Mod., 1:32, 19 (2013)
 https://link.springer.com/article/10.1007/s00894-012-1667-x

           Empirical Formula: C7 H12  =    19 atoms



      MOLECULAR POINT GROUP   :   C1  


      RHF CALCULATION, NO. OF DOUBLY OCCUPIED LEVELS = 20


          Transition state refinement using EF

          HESSIAN CALCULATED NUMERICALLY

 CYCLE:     1 TIME:   0.250 TIME LEFT:  2.00D  GRAD.:    34.080 HEAT:  49.60125
 CYCLE:     2 TIME:   0.000 TIME LEFT:  2.00D  GRAD.:    12.492 HEAT:  50.51926
 CYCLE:     3 TIME:   0.016 TIME LEFT:  2.00D  GRAD.:    43.551 HEAT:  50.04248
 CYCLE:     4 TIME:   0.000 TIME LEFT:  2.00D  GRAD.:    26.670 HEAT:  49.86457
 CYCLE:     5 TIME:   0.016 TIME LEFT:  2.00D  GRAD.:    28.563 HEAT:  49.82297
 CYCLE:     6 TIME:   0.000 TIME LEFT:  2.00D  GRAD.:     4.854 HEAT:  49.80735
 CYCLE:     7 TIME:   0.016 TIME LEFT:  2.00D  GRAD.:    15.042 HEAT:  49.80106
 CYCLE:     8 TIME:   0.016 TIME LEFT:  2.00D  GRAD.:     5.566 HEAT:  49.79878
 CYCLE:     9 TIME:   0.000 TIME LEFT:  2.00D  GRAD.:     8.077 HEAT:  49.79710
 CYCLE:    10 TIME:   0.016 TIME LEFT:  2.00D  GRAD.:     4.288 HEAT:  49.79367
 CYCLE:    11 TIME:   0.000 TIME LEFT:  2.00D  GRAD.:     6.392 HEAT:  49.79134
 CYCLE:    12 TIME:   0.016 TIME LEFT:  2.00D  GRAD.:     1.231 HEAT:  49.79046
 CYCLE:    13 TIME:   0.000 TIME LEFT:  2.00D  GRAD.:     0.944 HEAT:  49.78949

     GRADIENT =  0.94405 IS LESS THAN CUTOFF =  1.00000



 -------------------------------------------------------------------------------
 ts opt
      Transition state for 2-Methyl hexa-3,5-diene <=> 2-Methyl hexa-2,4-diene
 Refine transition state


     GEOMETRY OPTIMISED USING EIGENVECTOR FOLLOWING (TS).     
     SCF FIELD WAS ACHIEVED                                   


                              PM7 CALCULATION
                                                       MOPAC2016 (Version: 21.158W)
                                                       Wed Jun  9 11:58:53 2021
                                                       No. of days remaining = 363




          FINAL HEAT OF FORMATION =         49.78949 KCAL/MOL =     208.31924 KJ/MOL


          TOTAL ENERGY            =      -1019.42747 EV
          ELECTRONIC ENERGY       =      -4990.98665 EV  POINT GROUP:     C1  
          CORE-CORE REPULSION     =       3971.55917 EV
          COSMO AREA              =        152.17 SQUARE ANGSTROMS
          COSMO VOLUME            =        149.18 CUBIC ANGSTROMS

          GRADIENT NORM           =          0.94405 = 0.21658 PER ATOM
          IONIZATION POTENTIAL    =          8.343389 EV
          HOMO LUMO ENERGIES (EV) =         -8.343 -0.058
          NO. OF FILLED LEVELS    =         20
          MOLECULAR WEIGHT        =         96.1718

          MOLECULAR DIMENSIONS (Angstroms)

            Atom       Atom       Distance
            H    19    H     9     5.95333
            H    14    H     8     4.24695
            H    16    H    18     3.60425


          SCF CALCULATIONS        =         68
 
          WALL-CLOCK TIME         =          0.812 SECONDS
          COMPUTATION TIME        =          2.781 SECONDS




  ATOM    CHEMICAL      BOND LENGTH      BOND ANGLE     TWIST ANGLE 
 NUMBER    SYMBOL       (ANGSTROMS)      (DEGREES)       (DEGREES) 
   (I)                     NA:I           NB:NA:I       NC:NB:NA:I       NA    NB    NC 
     1       C          0.00000000       0.0000000       0.0000000        0     0     0
     2       H          1.46328167  *    0.0000000       0.0000000        1     0     0
     3       C          1.45102154  *  130.1293983  *    0.0000000        2     1     0
     4       C          1.40270011  *  101.0204002  *   54.3992809  *     3     2     1
     5       C          1.51310641  *   99.3794441  *   65.9990841  *     1     2     3
     6       C          1.50902798  *  107.8039532  *  117.8342861  *     1     2     5
     7       H          2.16089800  *  118.3258531  *  101.8594313  *     1     2     6
     8       H          2.14463723  *  148.8092919  *  -33.7103003  *     4     3     2
     9       H          1.09163084  *  118.8313347  *  173.5457436  *     4     3     8
    10       H          1.08559333  *   87.6953425  * -121.2534381  *     3     2     4
    11       H          1.08302420  *  111.8582691  * -111.5425342  *     3     2    10
    12       C          1.09163638  *   35.4392552  *   48.1028671  *     7     1     2
    13       C          1.08913551  *   34.7306504  *    8.4320286  *     8     4     3
    14       H          1.09548319  *  112.6986929  *   51.6394879  *     5     1     2
    15       H          1.10015998  *  109.6590960  *  119.2819022  *     5     1    14
    16       H          1.09843813  *  112.2260547  *  118.0251840  *     5     1    15
    17       H          1.09676520  *  111.5371266  *  -57.6857547  *     6     1     2
    18       H          1.09686260  *  111.7523319  *  120.0405300  *     6     1    17
    19       H          1.09812403  *  111.6499930  *  120.1811289  *     6     1    18

                             CARTESIAN COORDINATES

   1    C        0.000000000     0.000000000     0.000000000
   2    H        1.463281666     0.000000000     0.000000000
   3    C        2.398488302     1.109437725     0.000000000
   4    C        1.958487833     1.831033368     1.119494039
   5    C       -0.246593978     0.607229671    -1.363801501
   6    C       -0.461401900    -1.433543605     0.096054502
   7    H       -1.025314662     0.514495084     1.831257712
   8    H        0.336665974     2.470730346     2.368473819
   9    H        2.701334008     2.274654269     1.785104990
  10    H        2.044351699     1.350863248    -0.997403555
  11    H        3.426609409     0.770148096    -0.028123820
  12    C       -0.231227513     0.810574926     1.143193530
  13    C        0.629430606     1.822516675     1.543656221
  14    H        0.303334891     0.094510779    -2.160532945
  15    H       -1.316289617     0.538605316    -1.611579444
  16    H        0.011426224     1.674440013    -1.396266530
  17    H       -0.065272746    -2.040047359    -0.727431261
  18    H       -0.135629817    -1.903578292     1.032028592
  19    H       -1.556101167    -1.510360273     0.055940938


           Empirical Formula: C7 H12  =    19 atoms



      MOLECULAR POINT GROUP   :   C1  


                  EIGENVALUES  
 -29.97480 -27.13536 -24.97254 -24.01466 -22.07766 -19.09740 -17.87977 -16.47621
 -15.15203 -15.02867 -14.36596 -14.04498 -13.36301 -13.10687 -12.58713 -12.12924
 -12.02613 -11.84267  -9.53804  -8.34339  -0.05850   1.35595   4.31681   4.40738
   4.59113   5.08125   5.25090   5.43190   5.74807   5.78536   5.81735   5.89060
   5.91411   6.11692   6.31044   6.41215   6.45836   6.73351   6.94805   7.04178


              NET ATOMIC CHARGES AND DIPOLE CONTRIBUTIONS

  ATOM NO.   TYPE          CHARGE      No. of ELECS.   s-Pop       p-Pop       
    1          C          -0.087961        4.0880     1.07417     3.01379
    2          H           0.239476        0.7605     0.76052
    3          C          -0.435414        4.4354     1.08312     3.35229
    4          C          -0.096530        4.0965     1.08549     3.01104
    5          C          -0.433428        4.4334     1.05286     3.38057
    6          C          -0.457101        4.4571     1.05257     3.40453
    7          H           0.144977        0.8550     0.85502
    8          H           0.148234        0.8518     0.85177
    9          H           0.142178        0.8578     0.85782
   10          H           0.163446        0.8366     0.83655
   11          H           0.143063        0.8569     0.85694
   12          C          -0.137008        4.1370     1.09237     3.04463
   13          C          -0.225877        4.2259     1.07683     3.14905
   14          H           0.141787        0.8582     0.85821
   15          H           0.151530        0.8485     0.84847
   16          H           0.153863        0.8461     0.84614
   17          H           0.147686        0.8523     0.85231
   18          H           0.146741        0.8533     0.85326
   19          H           0.150339        0.8497     0.84966
 DIPOLE           X         Y         Z       TOTAL
 POINT-CHG.     0.076    -0.722    -0.364     0.812
 HYBRID        -0.136    -0.073    -0.089     0.178
 SUM           -0.060    -0.795    -0.453     0.917


          ATOMIC ORBITAL ELECTRON POPULATIONS

     Atom    s        px        py        pz   
    1  C   1.07417   1.09273   0.95564   0.96542
    2  H   0.76052
    3  C   1.08312   1.14543   1.11938   1.08749
    4  C   1.08549   1.01852   0.97618   1.01634
    5  C   1.05286   1.17122   1.15492   1.05443
    6  C   1.05257   1.16656   1.06237   1.17560
    7  H   0.85502
    8  H   0.85177
    9  H   0.85782
   10  H   0.83655
   11  H   0.85694
   12  C   1.09237   1.01536   0.98552   1.04376
   13  C   1.07683   0.99812   1.06212   1.08881
   14  H   0.85821
   15  H   0.84847
   16  H   0.84614
   17  H   0.85231
   18  H   0.85326
   19  H   0.84966
 *******************************************************************************
 ** Site#: 37037        For non-commercial use only           Version 21.158W **
 *******************************************************************************
 ** Cite this program as: MOPAC2016, Version: 21.158W, James J. P. Stewart,   **
 ** Stewart Computational Chemistry, web: HTTP://OpenMOPAC.net. Days left: 363**
 *******************************************************************************
 **                                                                           **
 **                                MOPAC2016                                  **
 **                                                                           **
 *******************************************************************************

                              PM7 CALCULATION RESULTS

 *******************************************************************************
 *  CALCULATION DONE:                                Wed Jun  9 11:58:53 2021  *
 *  OLDGEO     - PREVIOUS GEOMETRY TO BE USED
 *  FORCE      - FORCE CALCULATION SPECIFIED
 *  T=         - A TIME OF 172800.0 SECONDS REQUESTED
 *  DUMP=N     - RESTART FILE WRITTEN EVERY 7200.0 SECONDS REQUESTED
 *  ISOTOPE    - SAVE THE FORCE MATRIX FOR USE LATER
 *******************************************************************************
oldgeo force isotope
      Transition state for 2-Methyl hexa-3,5-diene <=> 2-Methyl hexa-2,4-diene
 Verify transition state
  ATOM    CHEMICAL      BOND LENGTH      BOND ANGLE     TWIST ANGLE 
 NUMBER    SYMBOL       (ANGSTROMS)      (DEGREES)       (DEGREES) 
   (I)                     NA:I           NB:NA:I       NC:NB:NA:I       NA    NB    NC 
     1       C          0.00000000       0.0000000       0.0000000        0     0     0
     2       H          1.46328167  *    0.0000000       0.0000000        1     0     0
     3       C          1.45102154  *  130.1293983  *    0.0000000        2     1     0
     4       C          1.40270011  *  101.0204002  *   54.3992809  *     3     2     1
     5       C          1.51310641  *   99.3794441  *   65.9990841  *     1     2     3
     6       C          1.50902798  *  107.8039532  *  117.8342861  *     1     2     5
     7       H          2.16089800  *  118.3258531  *  101.8594313  *     1     2     6
     8       H          2.14463723  *  148.8092919  *  -33.7103003  *     4     3     2
     9       H          1.09163084  *  118.8313347  *  173.5457436  *     4     3     8
    10       H          1.08559333  *   87.6953425  * -121.2534381  *     3     2     4
    11       H          1.08302420  *  111.8582691  * -111.5425342  *     3     2    10
    12       C          1.09163638  *   35.4392552  *   48.1028671  *     7     1     2
    13       C          1.08913551  *   34.7306504  *    8.4320286  *     8     4     3
    14       H          1.09548319  *  112.6986929  *   51.6394879  *     5     1     2
    15       H          1.10015998  *  109.6590960  *  119.2819022  *     5     1    14
    16       H          1.09843813  *  112.2260547  *  118.0251840  *     5     1    15
    17       H          1.09676520  *  111.5371266  *  -57.6857547  *     6     1     2
    18       H          1.09686260  *  111.7523319  *  120.0405300  *     6     1    17
    19       H          1.09812403  *  111.6499930  *  120.1811289  *     6     1    18
 


          CARTESIAN COORDINATES 

    NO.       ATOM           X           Y           Z

     1         C          0.0000      0.0000      0.0000
     2         H          1.4633      0.0000      0.0000
     3         C          2.3985      1.1094      0.0000
     4         C          1.9585      1.8310      1.1195
     5         C         -0.2466      0.6072     -1.3638
     6         C         -0.4614     -1.4335      0.0961
     7         H         -1.0253      0.5145      1.8313
     8         H          0.3367      2.4707      2.3685
     9         H          2.7013      2.2747      1.7851
    10         H          2.0444      1.3509     -0.9974
    11         H          3.4266      0.7701     -0.0281
    12         C         -0.2312      0.8106      1.1432
    13         C          0.6294      1.8225      1.5437
    14         H          0.3033      0.0945     -2.1605
    15         H         -1.3163      0.5386     -1.6116
    16         H          0.0114      1.6744     -1.3963
    17         H         -0.0653     -2.0400     -0.7274
    18         H         -0.1356     -1.9036      1.0320
    19         H         -1.5561     -1.5104      0.0559

 General Reference for PM7:
 "Optimization of Parameters for Semiempirical Methods VI: More Modifications to the 
 NDDO Approximations and Re-optimization of Parameters", J. J. P. Stewart, J. Mol. Mod., 1:32, 19 (2013)
 https://link.springer.com/article/10.1007/s00894-012-1667-x

           Empirical Formula: C7 H12  =    19 atoms



      MOLECULAR POINT GROUP   :   C1  


      RHF CALCULATION, NO. OF DOUBLY OCCUPIED LEVELS = 20



          HEAT OF FORMATION =      49.789493 KCALS/MOLE


          CARTESIAN COORDINATE DERIVATIVES

   NUMBER  ATOM         X            Y            Z

     1       C      0.047650    -0.115233     0.111763
     2       H     -0.012922     0.030435    -0.078926
     3       C      0.031353     0.026178    -0.029339
     4       C      0.044777    -0.028850     0.066334
     5       C      0.022095     0.028378     0.011140
     6       C     -0.000630     0.013610    -0.005152
     7       H      0.008811    -0.018444     0.015913
     8       H      0.002648    -0.040893    -0.016740
     9       H      0.028669     0.013132     0.007133
    10       H      0.008600    -0.002484     0.002725
    11       H     -0.008244    -0.002010    -0.000251
    12       C     -0.322944    -0.090435    -0.129721
    13       C      0.151876     0.196784     0.032881
    14       H     -0.022749    -0.005100    -0.003443
    15       H      0.004982    -0.001863     0.007823
    16       H      0.002920     0.005023    -0.003261
    17       H      0.007173     0.001061     0.015864
    18       H      0.002413    -0.012564    -0.004486
    19       H      0.003523     0.003276    -0.000259
 


          GRADIENT NORM =   0.49393

          MOLECULAR WEIGHT =   96.17



          ROTATIONAL CONSTANTS IN CM(-1)

          A =    0.13309438   B =    0.06546025   C =    0.05696580



           PRINCIPAL MOMENTS OF INERTIA IN UNITS OF 10**(-40)*GRAM-CM**2

          A =      210.3227   B =      427.6301   C =      491.3962


          ORIENTATION OF MOLECULE IN FORCE CALCULATION

    NO.       ATOM         X         Y         Z

     1          C      -0.5703   -0.6373   -0.3186
     2          H       0.8930   -0.6373   -0.3186
     3          C       1.8282    0.4722   -0.3186
     4          C       1.3882    1.1938    0.8009
     5          C      -0.8169   -0.0300   -1.6824
     6          C      -1.0317   -2.0708   -0.2226
     7          H      -1.5956   -0.1228    1.5126
     8          H      -0.2336    1.8335    2.0498
     9          H       2.1310    1.6374    1.4665
    10          H       1.4740    0.7136   -1.3160
    11          H       2.8563    0.1329   -0.3468
    12          C      -0.8015    0.1733    0.8246
    13          C       0.0591    1.1852    1.2250
    14          H      -0.2670   -0.5428   -2.4792
    15          H      -1.8866   -0.0987   -1.9302
    16          H      -0.5589    1.0372   -1.7149
    17          H      -0.6356   -2.6773   -1.0461
    18          H      -0.7059   -2.5408    0.7134
    19          H      -2.1264   -2.1476   -0.2627


    FIRST DERIVATIVES WILL BE USED IN THE CALCULATION OF SECOND DERIVATIVES

          ESTIMATED TIME TO COMPLETE CALCULATION =        0.00 SECONDS

    FOR POINT-GROUP C1   THERE ARE   1 UNIQUE SYMMETRY FUNCTIONS.

 STEP:   1 TIME =     0.02 SECS, INTEGRAL =      0.02 TIME LEFT: 172799.98
 STEP:   2 TIME =     0.02 SECS, INTEGRAL =      0.03 TIME LEFT: 172799.97
 STEP:   3 TIME =     0.02 SECS, INTEGRAL =      0.05 TIME LEFT: 172799.95
 STEP:   4 TIME =     0.02 SECS, INTEGRAL =      0.06 TIME LEFT: 172799.94
 STEP:   5 TIME =     0.00 SECS, INTEGRAL =      0.06 TIME LEFT: 172799.94
 STEP:   6 TIME =     0.02 SECS, INTEGRAL =      0.08 TIME LEFT: 172799.92
 STEP:   7 TIME =     0.02 SECS, INTEGRAL =      0.09 TIME LEFT: 172799.91
 STEP:   8 TIME =     0.02 SECS, INTEGRAL =      0.11 TIME LEFT: 172799.89
 STEP:   9 TIME =     0.02 SECS, INTEGRAL =      0.12 TIME LEFT: 172799.88
 STEP:  10 TIME =     0.02 SECS, INTEGRAL =      0.14 TIME LEFT: 172799.86
 STEP:  11 TIME =     0.02 SECS, INTEGRAL =      0.16 TIME LEFT: 172799.84
 STEP:  12 TIME =     0.02 SECS, INTEGRAL =      0.17 TIME LEFT: 172799.83
 STEP:  13 TIME =     0.02 SECS, INTEGRAL =      0.19 TIME LEFT: 172799.81
 STEP:  14 TIME =     0.02 SECS, INTEGRAL =      0.20 TIME LEFT: 172799.80
 STEP:  15 TIME =     0.02 SECS, INTEGRAL =      0.22 TIME LEFT: 172799.78
 STEP:  16 TIME =     0.02 SECS, INTEGRAL =      0.23 TIME LEFT: 172799.77
 STEP:  17 TIME =     0.02 SECS, INTEGRAL =      0.25 TIME LEFT: 172799.75
 STEP:  18 TIME =     0.02 SECS, INTEGRAL =      0.27 TIME LEFT: 172799.73
 STEP:  19 TIME =     0.02 SECS, INTEGRAL =      0.28 TIME LEFT: 172799.72
 STEP:  20 TIME =     0.02 SECS, INTEGRAL =      0.30 TIME LEFT: 172799.70
 STEP:  21 TIME =     0.02 SECS, INTEGRAL =      0.31 TIME LEFT: 172799.69
 STEP:  22 TIME =     0.00 SECS, INTEGRAL =      0.31 TIME LEFT: 172799.69
 STEP:  23 TIME =     0.00 SECS, INTEGRAL =      0.31 TIME LEFT: 172799.69
 STEP:  24 TIME =     0.00 SECS, INTEGRAL =      0.31 TIME LEFT: 172799.69
 STEP:  25 TIME =     0.00 SECS, INTEGRAL =      0.31 TIME LEFT: 172799.69
 STEP:  26 TIME =     0.00 SECS, INTEGRAL =      0.31 TIME LEFT: 172799.69
 STEP:  27 TIME =     0.02 SECS, INTEGRAL =      0.33 TIME LEFT: 172799.67
 STEP:  28 TIME =     0.02 SECS, INTEGRAL =      0.34 TIME LEFT: 172799.66
 STEP:  29 TIME =     0.02 SECS, INTEGRAL =      0.36 TIME LEFT: 172799.64
 STEP:  30 TIME =     0.02 SECS, INTEGRAL =      0.38 TIME LEFT: 172799.62
 STEP:  31 TIME =     0.02 SECS, INTEGRAL =      0.39 TIME LEFT: 172799.61
 STEP:  32 TIME =     0.02 SECS, INTEGRAL =      0.41 TIME LEFT: 172799.59
 STEP:  33 TIME =     0.02 SECS, INTEGRAL =      0.42 TIME LEFT: 172799.58
 STEP:  34 TIME =     0.02 SECS, INTEGRAL =      0.44 TIME LEFT: 172799.56
 STEP:  35 TIME =     0.02 SECS, INTEGRAL =      0.45 TIME LEFT: 172799.55
 STEP:  36 TIME =     0.02 SECS, INTEGRAL =      0.47 TIME LEFT: 172799.53
 STEP:  37 TIME =     0.02 SECS, INTEGRAL =      0.48 TIME LEFT: 172799.52
 STEP:  38 TIME =     0.02 SECS, INTEGRAL =      0.50 TIME LEFT: 172799.50
 STEP:  39 TIME =     0.02 SECS, INTEGRAL =      0.52 TIME LEFT: 172799.48
 STEP:  40 TIME =     0.02 SECS, INTEGRAL =      0.53 TIME LEFT: 172799.47
 STEP:  41 TIME =     0.02 SECS, INTEGRAL =      0.55 TIME LEFT: 172799.45
 STEP:  42 TIME =     0.02 SECS, INTEGRAL =      0.56 TIME LEFT: 172799.44
 STEP:  43 TIME =     0.02 SECS, INTEGRAL =      0.58 TIME LEFT: 172799.42
 STEP:  44 TIME =     0.02 SECS, INTEGRAL =      0.59 TIME LEFT: 172799.41
 STEP:  45 TIME =     0.02 SECS, INTEGRAL =      0.61 TIME LEFT: 172799.39
 STEP:  46 TIME =     0.02 SECS, INTEGRAL =      0.62 TIME LEFT: 172799.38
 STEP:  47 TIME =     0.02 SECS, INTEGRAL =      0.64 TIME LEFT: 172799.36
 STEP:  48 TIME =     0.00 SECS, INTEGRAL =      0.64 TIME LEFT: 172799.36
 STEP:  49 TIME =     0.02 SECS, INTEGRAL =      0.66 TIME LEFT: 172799.34
 STEP:  50 TIME =     0.02 SECS, INTEGRAL =      0.67 TIME LEFT: 172799.33
 STEP:  51 TIME =     0.00 SECS, INTEGRAL =      0.67 TIME LEFT: 172799.33
 STEP:  52 TIME =     0.00 SECS, INTEGRAL =      0.67 TIME LEFT: 172799.33
 STEP:  53 TIME =     0.02 SECS, INTEGRAL =      0.69 TIME LEFT: 172799.31
 STEP:  54 TIME =     0.02 SECS, INTEGRAL =      0.70 TIME LEFT: 172799.30
 STEP:  55 TIME =     0.02 SECS, INTEGRAL =      0.72 TIME LEFT: 172799.28
 STEP:  56 TIME =     0.02 SECS, INTEGRAL =      0.73 TIME LEFT: 172799.27
 STEP:  57 TIME =     0.02 SECS, INTEGRAL =      0.75 TIME LEFT: 172799.25

(To convert to Hartree/Bohr^2, multiply by (10^(-21) x N x a0^2)/(4.184 x 627.51) =  0.0642)


           FORCE MATRIX IN MILLIDYNES/ANGSTROM


                  C  1       H  2       C  3       C  4       C  5       C  6
 ------------------------------------------------------------------------------
     C    1  13.263480
     H    2   2.488239   2.155780
     C    3   2.797619   2.554862  12.115244
     C    4   1.758223   2.111635   6.083172  14.880457
     C    5   3.204462   0.707453   0.329193   0.269025  11.368027
     C    6   3.407359   0.372660   0.104719   0.064493   0.709135  11.444619
     H    7   0.827845   0.261946   0.231872   0.233411   0.035740   0.046092
     H    8   0.090149   0.007922   0.082172   0.773332   0.016269   0.011137
     H    9   0.206658   0.236992   0.835248   3.430103   0.038587   0.011465
     H   10   0.334661   0.615682   3.424056   0.894813   0.112972   0.021996
     H   11   0.034700   0.173185   3.523854   0.780549   0.012317   0.012538
     C   12   5.413183   1.920578   1.619953   2.264993   0.820450   0.743178
     C   13   2.099694   1.593442   2.170610   5.918181   0.291487   0.082766
     H   14   0.653321   0.035464   0.033921   0.029532   3.428097   0.011455
     H   15   0.709966   0.065761   0.049551   0.038269   3.382811   0.012968
     H   16   0.677759   0.022928   0.024067   0.018033   3.405144   0.045854
     H   17   0.699317   0.015234   0.012001   0.010796   0.014296   3.424840
     H   18   0.693157   0.014765   0.011419   0.010501   0.045650   3.425201
     H   19   0.710618   0.021692   0.010286   0.006516   0.010269   3.397357


                  H  7       H  8       H  9       H 10       H 11       C 12
 ------------------------------------------------------------------------------
     H    7   4.337972
     H    8   0.039801   4.397040
     H    9   0.029092   0.036015   4.343259
     H   10   0.044251   0.010032   0.033841   4.170808
     H   11   0.011781   0.008205   0.038394   0.458280   4.287991
     C   12   3.433936   0.784209   0.192249   0.270248   0.036009  14.685697
     C   13   0.854184   3.454468   0.826345   0.325266   0.100019   6.308983
     H   14   0.006358   0.001861   0.004079   0.023992   0.003210   0.058927
     H   15   0.003676   0.001596   0.005367   0.007997   0.001597   0.055586
     H   16   0.004044   0.003368   0.003029   0.036366   0.002415   0.036185
     H   17   0.004089   0.001827   0.002256   0.003152   0.002445   0.049351
     H   18   0.014032   0.001942   0.002800   0.002991   0.002595   0.028280
     H   19   0.012593   0.001638   0.001154   0.003444   0.001924   0.020892


                  C 13       H 14       H 15       H 16       H 17       H 18
 ------------------------------------------------------------------------------
     C   13  15.056687
     H   14   0.030404   4.219788
     H   15   0.041707   0.467288   4.188987
     H   16   0.017262   0.462299   0.464244   4.199162
     H   17   0.010570   0.015787   0.008828   0.002376   4.224563
     H   18   0.009360   0.001912   0.002427   0.007536   0.465402   4.223907
     H   19   0.012186   0.004834   0.015842   0.002187   0.467329   0.465294


                  H 19
 ------------------
     H   19   4.199480


          HEAT OF FORMATION =      49.789493 KCALS/MOLE

          ZERO POINT ENERGY      97.497 KCAL/MOL

         NOTE: SYSTEM IS NOT A GROUND STATE, THEREFORE ZERO POINT
         ENERGY IS NOT MEANINGFULL. ZERO POINT ENERGY PRINTED
         DOES NOT INCLUDE THE  1 IMAGINARY FREQUENCIES


           NORMAL COORDINATE ANALYSIS (Total motion = 1 Angstrom)


   Root No.       1         2         3         4         5         6         7         8

                 1 A       2 A       3 A       4 A       5 A       6 A       7 A       8 A   

               -2001.7     123.5     164.0     182.6     205.3     307.0     366.1     388.5
  
           1   -0.0465    0.0014   -0.0059    0.0002   -0.0084   -0.0005    0.0070   -0.0094
           2    0.0127   -0.0003    0.0146    0.0030    0.0117    0.0049   -0.0100    0.0311
           3    0.0106   -0.0030   -0.0173   -0.0060   -0.0033    0.0159   -0.0308   -0.0128
           4    0.4653    0.0016    0.0032    0.0013   -0.0138   -0.0106    0.0186   -0.0343
           5    0.2080   -0.0013    0.0291    0.0055   -0.0041   -0.0263    0.0098   -0.0141
           6    0.0014    0.0017   -0.0317   -0.0095   -0.0061    0.0183   -0.0364    0.0156
           7   -0.0194    0.0019   -0.0131    0.0058    0.0027   -0.0417    0.0245   -0.0004
           8   -0.0435   -0.0022    0.0268   -0.0066   -0.0376   -0.0094    0.0091   -0.0296
           9   -0.0128    0.0067   -0.0114    0.0116    0.0120   -0.0423    0.0017    0.0113
          10   -0.0178   -0.0023    0.0158   -0.0014    0.0034   -0.0172   -0.0102   -0.0162
          11    0.0128   -0.0002   -0.0265   -0.0038   -0.0249   -0.0271   -0.0018    0.0245
          12    0.0199    0.0039    0.0348    0.0076    0.0047   -0.0217   -0.0042   -0.0296
          13    0.0103    0.0079   -0.0101   -0.0190   -0.0347    0.0611   -0.0016   -0.0028
          14   -0.0023   -0.0026   -0.0294    0.0027    0.0231    0.0275    0.0405   -0.0059
          15    0.0025   -0.0051   -0.0342   -0.0013    0.0069    0.0145   -0.0051   -0.0321
          16    0.0035   -0.0023    0.0087    0.0232    0.0527    0.0226   -0.0093    0.0172
          17    0.0027    0.0013    0.0118   -0.0037   -0.0056    0.0002    0.0015    0.0235
          18   -0.0006    0.0041    0.0250   -0.0005    0.0036    0.0167    0.0537    0.0054
          19    0.0493   -0.0057   -0.0287   -0.0067   -0.0257   -0.0563    0.0054    0.0084
          20   -0.0382    0.0036    0.0313    0.0050    0.0364    0.0323   -0.0450   -0.0380
          21    0.0352   -0.0080   -0.0401   -0.0105   -0.0162   -0.0156   -0.0237    0.0172
          22   -0.0049   -0.0081    0.0201   -0.0109   -0.0034    0.0178   -0.0229    0.0379
          23   -0.0024    0.0041   -0.0403    0.0091    0.0351   -0.0117   -0.0388   -0.0697
          24   -0.0003   -0.0057    0.0484   -0.0111   -0.0334    0.0194   -0.0047    0.0862
          25    0.0002   -0.0049    0.0275   -0.0056    0.0038    0.0030   -0.0265   -0.0104
          26    0.0519   -0.0000   -0.0832   -0.0080   -0.0443   -0.0530    0.0124    0.0946
          27   -0.0343    0.0067    0.0578    0.0149    0.0168   -0.0269    0.0062   -0.0798
          28    0.0551    0.0066   -0.0375    0.0182    0.0215   -0.0522    0.0469    0.0255
          29    0.1073   -0.0021    0.0901   -0.0021   -0.0256    0.0057    0.0050   -0.1047
          30   -0.0149    0.0051    0.0115    0.0076    0.0071   -0.0342   -0.0069   -0.0141
          31    0.0034    0.0017   -0.0160    0.0036   -0.0061   -0.0392    0.0303    0.0018
          32    0.0066   -0.0034    0.0221   -0.0144   -0.0661   -0.0027    0.0236   -0.0307
          33    0.0037    0.0118   -0.0559    0.0235    0.0285   -0.0720    0.0290    0.0602
          34   -0.0006   -0.0029   -0.0063   -0.0043   -0.0163   -0.0304    0.0012   -0.0044
          35   -0.0198    0.0021    0.0210    0.0045    0.0211    0.0108   -0.0278   -0.0042
          36   -0.0187   -0.0054   -0.0208   -0.0079   -0.0101    0.0084   -0.0226    0.0170
          37    0.0213   -0.0043    0.0130   -0.0057   -0.0050   -0.0096   -0.0113    0.0065
          38    0.0095    0.0022   -0.0145    0.0045    0.0143   -0.0107   -0.0251   -0.0261
          39   -0.0004   -0.0029    0.0255   -0.0056   -0.0174    0.0095   -0.0120    0.0405
          40    0.0036    0.0400   -0.0012   -0.1955    0.0113    0.0576   -0.0073    0.0072
          41   -0.0008    0.0205   -0.0465   -0.1344    0.0846    0.0075    0.0797   -0.0309
          42   -0.0007    0.0021   -0.0175   -0.0345   -0.0005    0.0246   -0.0328   -0.0104
          43    0.0041    0.0148   -0.0087   -0.0582   -0.0269    0.0653   -0.0031    0.0005
          44   -0.0039   -0.0374   -0.0521    0.1978   -0.0488    0.0850    0.0557   -0.0205
          45    0.0064   -0.0256   -0.0356    0.1119   -0.0072   -0.0149   -0.0014   -0.0418
          46    0.0018   -0.0257   -0.0246    0.1779   -0.1084    0.1117    0.0010   -0.0046
          47    0.0007    0.0059   -0.0272   -0.0473    0.0421    0.0171    0.0431   -0.0074
          48   -0.0006    0.0057   -0.0666   -0.0723    0.0384    0.0320    0.0461   -0.0644
          49    0.0042   -0.2182    0.0135    0.0047    0.0859    0.0286   -0.0264    0.0275
          50    0.0043    0.0492   -0.0080    0.0060    0.0083    0.0055   -0.0619    0.0207
          51   -0.0004   -0.1347    0.0422   -0.0166    0.0086    0.0157    0.0949    0.0125
          52    0.0027    0.2185    0.0176    0.0616    0.0721    0.0376   -0.0075    0.0347
          53    0.0017   -0.0684    0.0432   -0.0040    0.0161    0.0082    0.0630    0.0439
          54   -0.0004   -0.1075    0.0379   -0.0138    0.0082    0.0164    0.0861    0.0103
          55    0.0005   -0.0138    0.0097    0.0232    0.0572    0.0240   -0.0114    0.0194
          56   -0.0035    0.0260   -0.0019   -0.0197   -0.0595   -0.0206    0.0158   -0.0023
          57   -0.0004    0.2697    0.0312    0.0351    0.0001    0.0245    0.0726    0.0136


   Root No.       9        10        11        12        13        14        15        16

                 9 A      10 A      11 A      12 A      13 A      14 A      15 A      16 A   

                 467.3     508.7     538.4     684.5     741.4     840.7     926.5     966.1
  
           1   -0.0657   -0.0228    0.0508    0.0003   -0.0100   -0.0002    0.0158   -0.0154
           2   -0.0018    0.0274    0.0122   -0.0119   -0.0067   -0.0029    0.0010   -0.0040
           3    0.0176    0.0028    0.0173   -0.0004   -0.0076   -0.0016    0.0064   -0.0123
           4   -0.0148   -0.0363    0.0712   -0.0337    0.0471   -0.0058   -0.0315   -0.0455
           5    0.0548    0.0188    0.0168    0.0291   -0.0364    0.0155    0.0016   -0.0129
           6    0.0033   -0.0358   -0.0154   -0.0612    0.0226   -0.0670   -0.0183   -0.0446
           7    0.0660    0.0185    0.0323   -0.0020    0.0179    0.0085    0.0186    0.0031
           8    0.0334    0.0106    0.0005    0.0081   -0.0065   -0.0002   -0.0036    0.0075
           9   -0.0071   -0.0109   -0.0202   -0.0155   -0.0027   -0.0113   -0.0009   -0.0030
          10    0.0144   -0.0105   -0.0259   -0.0191   -0.0317   -0.0085   -0.0000   -0.0067
          11    0.0036   -0.0330   -0.0274    0.0091   -0.0328   -0.0202   -0.0234   -0.0217
          12   -0.0133   -0.0007   -0.0170   -0.0167   -0.0076    0.0043    0.0099    0.0080
          13    0.0017    0.0062   -0.0092    0.0009   -0.0021   -0.0040    0.0018   -0.0036
          14   -0.0033   -0.0040   -0.0181   -0.0020    0.0023    0.0090    0.0074   -0.0274
          15    0.0101   -0.0203    0.0230    0.0017   -0.0042   -0.0217   -0.0154    0.0427
          16   -0.0042    0.0056    0.0034   -0.0065   -0.0066   -0.0063    0.0019   -0.0027
          17   -0.0236    0.0214    0.0357   -0.0240   -0.0182   -0.0177   -0.0253    0.0380
          18   -0.0052    0.0046   -0.0066   -0.0005   -0.0006   -0.0001    0.0055   -0.0071
          19   -0.0596    0.0986   -0.0643    0.0279    0.0703   -0.1153    0.1039    0.0438
          20    0.0618   -0.1041    0.0140   -0.0014   -0.0272    0.0981   -0.0982   -0.0409
          21    0.0085    0.1190   -0.0404   -0.0005    0.0105   -0.0873    0.0998   -0.0154
          22    0.0439   -0.0219    0.0015    0.0306    0.0113   -0.0638    0.0388   -0.0384
          23   -0.0426    0.0632   -0.0113   -0.0443    0.0041    0.1782   -0.0154   -0.0033
          24    0.0200   -0.0589    0.0105    0.0898    0.0728   -0.1279    0.0407   -0.0099
          25   -0.0058   -0.0197   -0.0308    0.0069   -0.0107    0.0015   -0.0172   -0.0190
          26    0.0151   -0.0960   -0.0302   -0.1032   -0.0583    0.1140    0.1554    0.1136
          27    0.0072    0.0559   -0.0045    0.0357   -0.0034   -0.0962   -0.0930   -0.0698
          28    0.0705    0.0397    0.0813    0.1638   -0.0448    0.0483   -0.0296   -0.0025
          29   -0.0184    0.0288    0.0149    0.0887   -0.1544    0.0613    0.1044    0.0258
          30   -0.0188   -0.0122   -0.0348   -0.0486   -0.0155   -0.0104    0.0377    0.0057
          31    0.0781    0.0088    0.0497   -0.0467    0.0908    0.0115   -0.0068   -0.0194
          32    0.0678   -0.0173    0.0407   -0.1544    0.2117    0.0027   -0.0511   -0.0517
          33    0.0184    0.0095    0.0267    0.1379   -0.0397    0.0146   -0.0649    0.0039
          34   -0.0464    0.0095   -0.0282    0.0167    0.0335    0.0181   -0.0320    0.0206
          35    0.0167   -0.0334    0.0041    0.0176    0.0254   -0.0073    0.0255    0.0034
          36    0.0041    0.0476    0.0009   -0.0085   -0.0197    0.0257   -0.0048   -0.0313
          37    0.0134   -0.0217   -0.0184   -0.0030   -0.0145    0.0024   -0.0044   -0.0046
          38   -0.0278    0.0201   -0.0137    0.0227    0.0441    0.0033    0.0118   -0.0033
          39   -0.0070   -0.0234    0.0056    0.0267    0.0393    0.0405    0.0031    0.0046
          40    0.0316    0.0304   -0.0351    0.0086   -0.0050    0.0025   -0.0069    0.0362
          41   -0.0176   -0.0413   -0.0196    0.0133    0.0157    0.0041    0.0162   -0.0131
          42    0.0386    0.0176    0.0067   -0.0020   -0.0137   -0.0139   -0.0236    0.0540
          43    0.0139    0.0164   -0.0227    0.0042   -0.0021    0.0005   -0.0016    0.0134
          44    0.0197   -0.0069   -0.0626    0.0099    0.0139    0.0062    0.0036    0.0287
          45   -0.0462   -0.0570    0.0806   -0.0088   -0.0087   -0.0294    0.0070   -0.0374
          46    0.0300    0.0211   -0.0484    0.0142   -0.0003    0.0042   -0.0052    0.0438
          47   -0.0091   -0.0101   -0.0118   -0.0035    0.0040    0.0046    0.0081   -0.0284
          48    0.0204   -0.0520   -0.0165    0.0264    0.0158   -0.0226   -0.0128    0.0981
          49    0.0326    0.0183   -0.0240   -0.0077    0.0041   -0.0012   -0.0246    0.0411
          50    0.0173    0.0265    0.0309   -0.0200   -0.0108   -0.0203   -0.0254    0.0502
          51   -0.0195    0.0070   -0.0161   -0.0036   -0.0015    0.0057   -0.0040   -0.0025
          52    0.0269    0.0185   -0.0337   -0.0098    0.0048    0.0024   -0.0341    0.0512
          53   -0.0254    0.0304   -0.0005   -0.0287   -0.0124   -0.0056   -0.0566    0.0710
          54   -0.0169    0.0053   -0.0133   -0.0032   -0.0023    0.0033   -0.0033   -0.0027
          55    0.0019    0.0074   -0.0030   -0.0060   -0.0034   -0.0036   -0.0035    0.0061
          56   -0.0907   -0.0020    0.0979   -0.0189   -0.0406   -0.0288    0.0357   -0.0501
          57   -0.0066    0.0065   -0.0198   -0.0045   -0.0003    0.0054   -0.0095    0.0020


   Root No.      17        18        19        20        21        22        23        24

                17 A      18 A      19 A      20 A      21 A      22 A      23 A      24 A   

                 992.1    1001.1    1015.4    1034.4    1045.3    1115.0    1157.3    1213.4
  
           1    0.0007    0.0040    0.0037   -0.0047    0.0041    0.0277    0.0334    0.0020
           2    0.0034    0.0126   -0.0041   -0.0050    0.0028   -0.0015   -0.0005   -0.0278
           3    0.0005   -0.0072    0.0102   -0.0091    0.0017    0.0038    0.0046    0.0249
           4    0.0024   -0.0037    0.0002    0.0085    0.0061   -0.0126    0.0704    0.0352
           5   -0.0066   -0.0086   -0.0084    0.0041   -0.0072   -0.0291    0.0045   -0.0491
           6   -0.0304    0.0303    0.0084    0.0268    0.0089   -0.0590    0.1272    0.1747
           7    0.0167   -0.0003    0.0006    0.0244    0.0183   -0.0208    0.0083    0.0029
           8   -0.0139    0.0067    0.0025   -0.0137   -0.0120   -0.0207    0.0088    0.0153
           9    0.0095   -0.0051   -0.0009    0.0057    0.0046    0.0155   -0.0207    0.0008
          10   -0.0086    0.0021   -0.0014   -0.0020   -0.0065   -0.0011    0.0154   -0.0293
          11   -0.0037    0.0007   -0.0010    0.0208    0.0191    0.0073    0.0020   -0.0172
          12   -0.0061    0.0004    0.0003   -0.0192   -0.0187   -0.0097    0.0172   -0.0105
          13    0.0032    0.0250    0.0193    0.0046   -0.0106   -0.0157   -0.0268   -0.0122
          14    0.0102    0.0123   -0.0122   -0.0246    0.0167   -0.0018    0.0023    0.0128
          15    0.0040    0.0181   -0.0290   -0.0041    0.0096   -0.0036   -0.0120   -0.0241
          16   -0.0128   -0.0249   -0.0238    0.0027   -0.0035   -0.0181   -0.0195    0.0039
          17   -0.0018   -0.0121    0.0172    0.0069   -0.0026    0.0002   -0.0030    0.0165
          18   -0.0042   -0.0169    0.0314   -0.0184    0.0195   -0.0054   -0.0031   -0.0107
          19   -0.0821    0.0415   -0.0012   -0.0082    0.0203    0.0303   -0.0326    0.0608
          20    0.0741   -0.0515   -0.0050   -0.0155   -0.0512   -0.0200   -0.0537    0.1470
          21   -0.0688    0.0246   -0.0025    0.0063   -0.0213    0.0389   -0.0354    0.1037
          22    0.0522   -0.0227   -0.0048   -0.0029   -0.0633    0.0502   -0.0153    0.0301
          23   -0.1150    0.0436   -0.0048    0.0529    0.0433    0.0231   -0.0159    0.0132
          24    0.1165   -0.0423   -0.0032   -0.0181   -0.0512   -0.0181    0.0257   -0.0228
          25   -0.0329    0.0075   -0.0063   -0.0051   -0.0159    0.0127    0.0333   -0.1063
          26    0.0337   -0.0072    0.0034   -0.0675   -0.0617   -0.0284    0.0055    0.0309
          27   -0.0041   -0.0000    0.0029    0.0464    0.0485    0.0009   -0.0115    0.0502
          28   -0.0487    0.0083    0.0004   -0.0586   -0.0519    0.0600    0.0119   -0.0308
          29    0.1040   -0.0181    0.0065    0.0667    0.0520    0.1175   -0.0786    0.0468
          30    0.0510   -0.0110    0.0008    0.0437    0.0369    0.0164   -0.0379    0.0229
          31    0.0047   -0.0103   -0.0053    0.0010   -0.0028    0.0445   -0.0182   -0.0187
          32   -0.0174   -0.0268   -0.0140   -0.0457   -0.0425    0.1540   -0.0748   -0.0452
          33   -0.0787    0.0161    0.0027   -0.1046   -0.0797    0.0381   -0.0207    0.0438
          34    0.0224   -0.0092    0.0023   -0.0123    0.0050   -0.0130   -0.0160    0.0187
          35   -0.0152    0.0068   -0.0036    0.0027    0.0032    0.0105   -0.0067    0.0080
          36    0.0165   -0.0099    0.0005    0.0115   -0.0222    0.0053    0.0084   -0.0104
          37   -0.0165    0.0041   -0.0005   -0.0052   -0.0029    0.0123   -0.0109    0.0150
          38    0.0220   -0.0070   -0.0031    0.0036   -0.0148   -0.0103    0.0161   -0.0214
          39   -0.0195    0.0093   -0.0032    0.0228    0.0205   -0.0081    0.0031   -0.0039
          40    0.0034   -0.0375   -0.0677   -0.0283    0.0389    0.0333    0.0364    0.0135
          41   -0.0336   -0.0325    0.1036    0.0686   -0.0618   -0.0028   -0.0060   -0.0027
          42    0.0278    0.0024   -0.1424   -0.0765    0.0827    0.0270    0.0327    0.0081
          43    0.0016   -0.0084   -0.0183   -0.0057    0.0082    0.0063    0.0031   -0.0089
          44   -0.0281   -0.0892   -0.0012    0.0327   -0.0047    0.0261    0.0467    0.0082
          45    0.0127    0.1288    0.1018    0.0170   -0.0483   -0.0640   -0.0980   -0.0106
          46   -0.0142   -0.0626   -0.0264    0.0097    0.0060    0.0406    0.0406    0.0027
          47    0.0071    0.0204    0.0060   -0.0127    0.0048   -0.0125   -0.0100    0.0033
          48   -0.0620   -0.1094    0.0667    0.1147   -0.0738    0.0266    0.0261   -0.0201
          49    0.0233    0.0229    0.1051   -0.0225    0.0269    0.0323    0.0262    0.0038
          50    0.0026   -0.0449    0.1940   -0.0648    0.0756    0.0090    0.0064   -0.0150
          51    0.0093    0.0354   -0.0613    0.0289   -0.0322    0.0098    0.0101    0.0124
          52    0.0323    0.0629    0.0209    0.0232   -0.0187    0.0467    0.0395    0.0038
          53    0.0362    0.1013   -0.0917    0.0838   -0.0825    0.0443    0.0354    0.0419
          54    0.0036    0.0195   -0.0452    0.0208   -0.0234   -0.0001    0.0004    0.0123
          55   -0.0025   -0.0076    0.0005   -0.0001    0.0003   -0.0027   -0.0045    0.0028
          56   -0.0706   -0.1250   -0.1377    0.0069   -0.0123   -0.0866   -0.0859   -0.0158
          57    0.0134    0.0395   -0.0388    0.0232   -0.0270    0.0095    0.0110    0.0295


   Root No.      25        26        27        28        29        30        31        32

                25 A      26 A      27 A      28 A      29 A      30 A      31 A      32 A   

                1231.6    1245.6    1278.6    1287.4    1295.2    1296.9    1303.2    1314.9
  
           1   -0.0147    0.0133    0.0116   -0.0007   -0.0017    0.0030   -0.0065    0.0102
           2    0.0301    0.0223    0.0539    0.0071    0.0009    0.0063   -0.0115    0.0281
           3   -0.0337   -0.0116   -0.0029   -0.0036   -0.0004    0.0013    0.0019   -0.0073
           4   -0.0211    0.0605   -0.0118   -0.0049   -0.0033    0.0067   -0.0086    0.0429
           5   -0.0668    0.0329   -0.0094   -0.0028   -0.0024    0.0024    0.0147   -0.0009
           6    0.2519   -0.0858   -0.0071    0.0154    0.0271   -0.0129   -0.0196   -0.0168
           7   -0.0059   -0.0035   -0.0050   -0.0018    0.0006    0.0031   -0.0019    0.0100
           8    0.0018    0.0167   -0.0130   -0.0014   -0.0000    0.0028   -0.0006    0.0148
           9    0.0007    0.0097   -0.0134   -0.0009   -0.0008    0.0025    0.0003    0.0112
          10   -0.0009   -0.0126    0.0024    0.0011   -0.0018   -0.0033    0.0029   -0.0196
          11   -0.0098   -0.0083    0.0007   -0.0002   -0.0013   -0.0011    0.0018   -0.0058
          12   -0.0065   -0.0065    0.0045    0.0003   -0.0008   -0.0022    0.0020   -0.0070
          13    0.0001    0.0006   -0.0035    0.0006    0.0081    0.0062   -0.0173   -0.0087
          14   -0.0131   -0.0080   -0.0191    0.0101    0.0025   -0.0177   -0.0054   -0.0065
          15    0.0181    0.0096    0.0062    0.0082   -0.0007   -0.0091   -0.0016    0.0117
          16    0.0045   -0.0091   -0.0091   -0.0065   -0.0244   -0.0049   -0.0056   -0.0076
          17   -0.0157   -0.0170   -0.0351   -0.0045    0.0040   -0.0049    0.0083   -0.0189
          18    0.0106    0.0044    0.0008   -0.0195    0.0093   -0.0124   -0.0040    0.0030
          19   -0.0332   -0.0191    0.0225   -0.0012    0.0034   -0.0003   -0.0075    0.0152
          20   -0.0681   -0.0323    0.0733   -0.0073    0.0179    0.0065   -0.0243    0.0823
          21   -0.0779   -0.0399    0.0418   -0.0079    0.0106    0.0025   -0.0179    0.0534
          22    0.0822    0.2094   -0.1769    0.0028   -0.0203   -0.0169    0.0499   -0.0477
          23    0.0363    0.0947   -0.0861    0.0011   -0.0096   -0.0087    0.0250   -0.0270
          24   -0.0054   -0.0156   -0.0094   -0.0007   -0.0012   -0.0017    0.0028   -0.0093
          25    0.0100   -0.1163   -0.1431   -0.0210    0.0029    0.0441   -0.0235    0.1234
          26    0.0064    0.0310    0.0654    0.0110   -0.0020   -0.0243    0.0128   -0.0746
          27   -0.0290    0.0891    0.1201    0.0172   -0.0053   -0.0390    0.0242   -0.1163
          28    0.0602   -0.0901    0.0594    0.0169   -0.0003   -0.0366    0.0187   -0.1220
          29    0.1213   -0.0805   -0.0183    0.0033    0.0122    0.0053   -0.0222   -0.0009
          30    0.0117    0.0130   -0.0380   -0.0068    0.0024    0.0167   -0.0114    0.0544
          31    0.0141   -0.0311    0.0031    0.0000    0.0015    0.0016   -0.0033   -0.0090
          32    0.0464   -0.0609    0.0117    0.0038    0.0021   -0.0029   -0.0028   -0.0346
          33    0.0388    0.0308   -0.0608   -0.0134    0.0094    0.0359   -0.0315    0.0802
          34    0.0091    0.0022    0.0152    0.0018    0.0016   -0.0004   -0.0011   -0.0004
          35   -0.0058    0.0053    0.0141    0.0011    0.0004   -0.0016   -0.0016   -0.0036
          36    0.0033    0.0049    0.0068   -0.0001    0.0001   -0.0007   -0.0019    0.0000
          37    0.0021    0.0086    0.0056    0.0001    0.0015    0.0007   -0.0023    0.0056
          38    0.0019   -0.0099   -0.0136   -0.0007   -0.0008   -0.0006    0.0025   -0.0066
          39   -0.0054   -0.0066   -0.0063   -0.0004   -0.0005   -0.0017    0.0027   -0.0075
          40    0.0092   -0.0071    0.0340   -0.1004   -0.0571    0.0873    0.1491    0.0089
          41    0.0298   -0.0080    0.0593   -0.0271   -0.0587   -0.0190    0.1448    0.0716
          42   -0.0057    0.0017   -0.0159   -0.0451   -0.0034    0.0608    0.0133   -0.0335
          43   -0.0096    0.0094   -0.0062    0.0264    0.0113   -0.0247   -0.0350    0.0053
          44    0.0164    0.0332    0.0474   -0.1192    0.0140    0.1974   -0.0172   -0.0363
          45    0.0230   -0.0400    0.0080   -0.0764   -0.0378    0.0585    0.1186   -0.0244
          46   -0.0036   -0.0141    0.0193    0.0680   -0.0649   -0.1566    0.1315    0.0907
          47   -0.0058    0.0023   -0.0117   -0.0099    0.0195    0.0304   -0.0411   -0.0251
          48   -0.0066    0.0271    0.0232    0.0520    0.0408   -0.0082   -0.1120   -0.0171
          49   -0.0176   -0.0011   -0.0067    0.1761    0.0959    0.0994    0.0699    0.0066
          50    0.0163    0.0031   -0.0057    0.0188   -0.1011    0.0127   -0.0278    0.0092
          51   -0.0224   -0.0050   -0.0096    0.0614    0.1322    0.0317    0.0564   -0.0070
          52   -0.0229    0.0086    0.0066   -0.0833    0.2393   -0.0484    0.0436    0.0159
          53   -0.0363   -0.0126    0.0099   -0.0689   -0.0863   -0.0273   -0.0378    0.0054
          54   -0.0018   -0.0053    0.0088   -0.0153   -0.1268   -0.0026   -0.0389    0.0009
          55    0.0010   -0.0037   -0.0047   -0.0155   -0.0161   -0.0090   -0.0077   -0.0043
          56    0.0318   -0.0159    0.0079    0.0610    0.1288    0.0286    0.0533    0.0115
          57   -0.0224   -0.0163   -0.0093    0.2101   -0.1212    0.1244    0.0226   -0.0133


   Root No.      33        34        35        36        37        38        39        40

                33 A      34 A      35 A      36 A      37 A      38 A      39 A      40 A   

                1358.4    1386.3    1395.9    1414.3    1535.7    1600.7    1648.5    1669.3
  
           1    0.0093   -0.0007   -0.0057   -0.0026    0.0068    0.0236    0.0006    0.0037
           2   -0.0060    0.0192   -0.0199    0.0043   -0.0434    0.0008   -0.0486    0.0175
           3   -0.0358    0.0120    0.0163    0.0388   -0.0603    0.0077   -0.0605    0.0199
           4   -0.0070   -0.0094   -0.0084   -0.0040    0.0560   -0.2418   -0.0030   -0.2119
           5    0.0256    0.0226   -0.0030    0.0193    0.0558    0.5410    0.0863   -0.1147
           6    0.0089    0.0066   -0.0003    0.0046    0.0111    0.1416    0.0250   -0.0207
           7   -0.0034   -0.0032    0.0007   -0.0066   -0.0144   -0.0054    0.0257    0.0342
           8    0.0014    0.0097   -0.0029    0.0151    0.0275   -0.0231   -0.0336   -0.0297
           9    0.0122    0.0201   -0.0054    0.0295    0.0422   -0.0001   -0.0508   -0.0546
          10   -0.0058   -0.0151    0.0058   -0.0215   -0.0175   -0.0010   -0.0643   -0.1129
          11    0.0067   -0.0033    0.0014   -0.0084   -0.0336   -0.0137    0.0400    0.0410
          12    0.0101   -0.0014    0.0005   -0.0059   -0.0383   -0.0117    0.0765    0.0840
          13    0.0033   -0.0053    0.0015    0.0015   -0.0008    0.0018    0.0034    0.0007
          14   -0.0060    0.0102    0.0030   -0.0056    0.0043   -0.0016    0.0041   -0.0030
          15    0.0197   -0.0306   -0.0006    0.0052    0.0061    0.0041    0.0041    0.0034
          16   -0.0032   -0.0031   -0.0090    0.0014   -0.0016   -0.0053   -0.0007    0.0033
          17   -0.0018   -0.0152   -0.0348    0.0015    0.0060   -0.0013    0.0027    0.0028
          18    0.0071   -0.0005    0.0003   -0.0069    0.0066   -0.0006    0.0029   -0.0003
          19    0.0412   -0.0012   -0.0061   -0.0126   -0.0377    0.0086    0.0205   -0.0394
          20    0.1611   -0.0105   -0.0340   -0.0823   -0.0564    0.0185   -0.0635   -0.0200
          21    0.1278   -0.0223   -0.0216   -0.0744   -0.0213   -0.0053   -0.0264   -0.0453
          22    0.0891    0.0282    0.0130   -0.0081   -0.1613    0.0032    0.0205    0.0445
          23    0.0469    0.0078    0.0076   -0.0163   -0.0759   -0.0002   -0.0132    0.0169
          24    0.0065   -0.0114    0.0042   -0.0186    0.0020   -0.0030   -0.0309   -0.0015
          25    0.0421    0.0435   -0.0113    0.0387   -0.0660   -0.0213    0.0725   -0.0065
          26   -0.0109   -0.0263    0.0084   -0.0284    0.0031   -0.0040   -0.0416   -0.0283
          27   -0.0318   -0.0476    0.0141   -0.0537    0.0183    0.0021   -0.0487    0.0368
          28    0.1254    0.0603   -0.0100    0.0909    0.0198   -0.0809   -0.0394   -0.0180
          29   -0.0406   -0.0240    0.0086   -0.0249   -0.0250   -0.0040   -0.0210   -0.0203
          30   -0.0466   -0.0142    0.0023   -0.0190    0.0075    0.0131   -0.0221   -0.0063
          31   -0.0147   -0.0171    0.0059   -0.0244   -0.0317    0.0212    0.0212    0.0165
          32   -0.0178   -0.0183    0.0079   -0.0226   -0.0229    0.0596   -0.0110    0.0111
          33   -0.1558   -0.0937    0.0226   -0.1191   -0.0422    0.0449   -0.0094   -0.0421
          34   -0.0101    0.0105   -0.0004    0.0178   -0.0325    0.0089    0.0449   -0.0393
          35   -0.0169   -0.0001   -0.0014    0.0149    0.0147   -0.0145    0.1089   -0.0660
          36   -0.0040   -0.0077   -0.0045   -0.0031    0.0454   -0.0167    0.0836   -0.0346
          37   -0.0122    0.0015   -0.0021    0.0099    0.0750    0.0034   -0.0199    0.1289
          38    0.0013   -0.0098    0.0034   -0.0157    0.0336    0.0029   -0.0680    0.0498
          39    0.0073   -0.0078    0.0032   -0.0153   -0.0021    0.0023   -0.0477   -0.0107
          40   -0.0090    0.0542   -0.0210   -0.0496    0.0243   -0.0038    0.0176   -0.0073
          41    0.0009   -0.0963    0.0188    0.0738   -0.0361    0.0086   -0.0281    0.0051
          42   -0.0009    0.0874   -0.0254   -0.0757    0.0372   -0.0089    0.0213   -0.0052
          43    0.0086   -0.0331    0.0085    0.0217   -0.0081    0.0098   -0.0052    0.0060
          44    0.0287   -0.0661    0.0100    0.0532   -0.0171    0.0069   -0.0176    0.0082
          45   -0.0327    0.1243   -0.0304   -0.0896    0.0245   -0.0121    0.0253   -0.0118
          46   -0.0336    0.0450   -0.0162   -0.0352    0.0020    0.0071    0.0001   -0.0033
          47    0.0027    0.0034    0.0022   -0.0001    0.0006   -0.0008    0.0016    0.0009
          48   -0.0447    0.1671   -0.0490   -0.0882   -0.0051    0.0016   -0.0064    0.0020
          49    0.0237    0.0027    0.0884   -0.0182    0.0284   -0.0085    0.0220   -0.0071
          50    0.0501    0.0143    0.1731   -0.0391    0.0503   -0.0036    0.0301   -0.0070
          51   -0.0237   -0.0138   -0.1011    0.0192   -0.0250    0.0001   -0.0220    0.0059
          52    0.0002    0.0147    0.0922    0.0014    0.0015   -0.0032    0.0010   -0.0014
          53   -0.0032    0.0333    0.2076    0.0092    0.0002    0.0046   -0.0004    0.0009
          54    0.0003    0.0155    0.0860    0.0020    0.0007    0.0028   -0.0003    0.0021
          55   -0.0018   -0.0043   -0.0236    0.0016   -0.0044   -0.0007   -0.0052    0.0055
          56    0.0085    0.0316    0.2023   -0.0141    0.0153   -0.0253    0.0117   -0.0011
          57   -0.0057   -0.0073   -0.0174    0.0077   -0.0036    0.0024   -0.0029    0.0017


   Root No.      41        42        43        44        45        46        47        48

                41 A      42 A      43 A      44 A      45 A      46 A      47 A      48 A   

                2665.6    2673.7    2676.7    2679.4    2684.9    2741.1    2746.6    2761.9
  
           1   -0.0018   -0.0019    0.0014    0.0005    0.0004   -0.0019   -0.0005   -0.0003
           2   -0.0010   -0.0005   -0.0014   -0.0012   -0.0003    0.0006    0.0000   -0.0003
           3   -0.0005   -0.0002    0.0004   -0.0025   -0.0006    0.0032    0.0007    0.0003
           4    0.0012    0.0007   -0.0010   -0.0003    0.0021   -0.0006    0.0022   -0.0096
           5   -0.0031   -0.0002    0.0012   -0.0002    0.0146   -0.0036    0.0036   -0.0104
           6    0.0018   -0.0000   -0.0009    0.0001   -0.0051   -0.0011    0.0002    0.0012
           7    0.0019    0.0008   -0.0010    0.0012   -0.0303   -0.0014   -0.0081   -0.0195
           8   -0.0007   -0.0002    0.0003   -0.0006    0.0131    0.0012    0.0010    0.0056
           9    0.0024    0.0008   -0.0010    0.0014   -0.0289    0.0052   -0.0055    0.0173
          10   -0.0000    0.0001    0.0001   -0.0000    0.0033    0.0086   -0.0247   -0.0008
          11   -0.0002   -0.0001    0.0001   -0.0000    0.0034    0.0039   -0.0141    0.0037
          12   -0.0000   -0.0001    0.0001    0.0001    0.0020    0.0056   -0.0209    0.0065
          13   -0.0355   -0.0003    0.0141    0.0069   -0.0032   -0.0003   -0.0004    0.0008
          14   -0.0189   -0.0121   -0.0214   -0.0147   -0.0014    0.0000   -0.0000   -0.0002
          15   -0.0004   -0.0049   -0.0125   -0.0072   -0.0004   -0.0001   -0.0007    0.0016
          16    0.0067   -0.0338    0.0098    0.0026   -0.0011   -0.0006   -0.0003   -0.0000
          17   -0.0015    0.0109   -0.0018   -0.0026    0.0002    0.0011    0.0000   -0.0003
          18    0.0016    0.0027    0.0161   -0.0323   -0.0028    0.0012    0.0001    0.0003
          19   -0.0030   -0.0063   -0.0012    0.0077   -0.0018    0.3571    0.1289   -0.0233
          20   -0.0010   -0.0025   -0.0005    0.0031   -0.0002    0.1286    0.0468   -0.0094
          21    0.0024    0.0050    0.0009   -0.0058    0.0010   -0.3012   -0.1082    0.0209
          22   -0.0001    0.0001    0.0000   -0.0003   -0.0021   -0.0448    0.0289    0.0410
          23    0.0003   -0.0001   -0.0001    0.0004    0.0046    0.0987   -0.0663   -0.0893
          24    0.0001   -0.0003   -0.0003    0.0005    0.0060    0.1224   -0.0815   -0.1106
          25    0.0025    0.0006   -0.0021    0.0009   -0.0670   -0.0953    0.3279   -0.0409
          26    0.0014    0.0002   -0.0011    0.0005   -0.0392   -0.0583    0.1997   -0.0248
          27    0.0018    0.0004   -0.0018    0.0005   -0.0547   -0.0853    0.2893   -0.0376
          28   -0.0079   -0.0031    0.0040   -0.0064    0.1262   -0.0196    0.0105   -0.0870
          29    0.0077    0.0022   -0.0027    0.0045   -0.0856    0.0113   -0.0075    0.0520
          30   -0.0318   -0.0107    0.0137   -0.0202    0.4083   -0.0541    0.0456   -0.2215
          31   -0.0118   -0.0062    0.0086   -0.0082    0.2533    0.0447    0.0796    0.3497
          32    0.0042    0.0021   -0.0028    0.0030   -0.0888   -0.0150   -0.0291   -0.1244
          33    0.0016    0.0008   -0.0010    0.0013   -0.0296   -0.0007   -0.0063   -0.0123
          34    0.0002    0.0004    0.0001   -0.0006    0.0001   -0.0266   -0.0085    0.0016
          35    0.0001    0.0002   -0.0000    0.0003    0.0004   -0.0111   -0.0020    0.0006
          36    0.0000   -0.0002    0.0002    0.0010    0.0003    0.0208    0.0088   -0.0014
          37   -0.0000   -0.0001    0.0001   -0.0000    0.0004    0.0012   -0.0068   -0.0007
          38   -0.0000    0.0000    0.0000   -0.0001   -0.0003   -0.0084    0.0027    0.0073
          39    0.0000    0.0000    0.0000   -0.0000   -0.0004   -0.0076    0.0053    0.0078
          40    0.0294   -0.0478   -0.1315   -0.0777   -0.0013    0.0023   -0.0047    0.0119
          41   -0.0541    0.0376    0.1165    0.0675   -0.0034   -0.0016    0.0038   -0.0096
          42   -0.0730    0.0686    0.2013    0.1185   -0.0021   -0.0034    0.0059   -0.0160
          43    0.3652    0.0214   -0.0948   -0.0436    0.0381    0.0003    0.0108   -0.0244
          44    0.0101   -0.0055   -0.0165   -0.0102    0.0016   -0.0000    0.0006   -0.0017
          45    0.0981    0.0030   -0.0330   -0.0157    0.0099    0.0000    0.0025   -0.0056
          46    0.0487    0.0294    0.0500    0.0345    0.0016    0.0008   -0.0013    0.0046
          47    0.2764    0.1185    0.1698    0.1232    0.0179    0.0021   -0.0042    0.0149
          48   -0.0168   -0.0098   -0.0166   -0.0112   -0.0002   -0.0004   -0.0001   -0.0008
          49   -0.0035    0.0585    0.0350   -0.1003   -0.0060    0.0074    0.0001   -0.0014
          50    0.0113   -0.1189   -0.0491    0.1647    0.0094   -0.0118   -0.0008    0.0021
          51    0.0164   -0.1600   -0.0546    0.1980    0.0107   -0.0153   -0.0006    0.0029
          52   -0.0091    0.0196   -0.0493    0.0822    0.0083    0.0010   -0.0004   -0.0022
          53    0.0189   -0.0527    0.0841   -0.1274   -0.0133   -0.0000    0.0005    0.0031
[...]
    89.000     797    28.10430   21.98403    50.08833   0.00024   179   % 16.4629
    89.500     802    28.22912   21.85922    50.08834   0.00025   180   % 16.5943
    90.000     807    28.37576   21.71260    50.08836   0.00028   181   % 16.7239
    90.500     812    28.51725   21.57113    50.08838   0.00031   182   % 16.8513
    91.000     817    28.62036   21.46805    50.08840   0.00034   183   % 16.9763
    91.500     822    28.65269   21.43572    50.08841   0.00035   184   % 17.0987
    92.000     827    28.58913   21.49926    50.08839   0.00034   185   % 17.2183
    92.500     832    28.41670   21.67166    50.08836   0.00032   186   % 17.3348
    93.000     837    28.13717   21.95115    50.08832   0.00029   187   % 17.4479
    93.500     842    27.76709   22.32118    50.08827   0.00025   188   % 17.5576
    94.000     847    27.33501   22.75321    50.08822   0.00020   189   % 17.6636
    94.500     852    26.87595   23.21220    50.08815   0.00014   190   % 17.7658
    95.000     857    26.42434   23.66375    50.08809   0.00008   191   % 17.8641
    95.500     862    26.00692   24.08110    50.08803   0.00003   192   % 17.9585
    96.000     867    25.63822   24.44975    50.08797  -0.00001   193   % 18.0488
    96.500     872    25.32027   24.76767    50.08794  -0.00004   194   % 18.1352
    97.000     877    25.04733   25.04060    50.08793  -0.00004   195   % 18.2176
    97.500     882    24.81407   25.27388    50.08795  -0.00001   196   % 18.2962
    98.000     886    24.62397   25.46401    50.08798   0.00002   197   % 18.3713
    98.500     891    24.49406   25.59394    50.08799   0.00005   198   % 18.4430
    99.000     896    24.45343   25.63457    50.08801   0.00007   199   % 18.5117
    99.500     901    24.53556   25.55244    50.08800   0.00008   200   % 18.5780


           INITIAL VELOCITY IN DRC (Angstroms/Femtosecond)
         0.04648        -0.01271        -0.01055
        -0.46530        -0.20798        -0.00138
         0.01940         0.04346         0.01279
         0.01776        -0.01280        -0.01992
        -0.01028         0.00226        -0.00249
        -0.00355        -0.00268         0.00063
        -0.04931         0.03815        -0.03523
         0.00489         0.00237         0.00035
        -0.00018        -0.05195         0.03433
        -0.05507        -0.10725         0.01490
        -0.00340        -0.00658        -0.00371
         0.00064         0.01981         0.01865
        -0.02134        -0.00952         0.00044
        -0.00364         0.00079         0.00074
        -0.00406         0.00393        -0.00637
        -0.00181        -0.00073         0.00057
        -0.00418        -0.00429         0.00042
        -0.00274        -0.00166         0.00041
        -0.00047         0.00351         0.00035
 THE VIBRATIONAL FREQUENCY ( -2001.74CM(-1)) IS TOO SMALL
 FOR ONE QUANTUM TO BE USED
 INSTEAD 0.3KCAL/MOLE WILL BE USED TO START THE IRC

 TIME PRIORITY, INTERVAL = 0.50 FEMTOSECONDS



 FEMTOSECONDS  POINT  POTENTIAL + KINETIC  =   TOTAL     ERROR    REF%   MOVEMENT
     0.000       1    49.78946    0.30000    50.08946   0.00000     1   %  0.0000
     0.500       1    49.77943   -0.50732    49.27212  -0.81734     2   %  0.0128
     1.000       1    49.74745   -0.77651    48.97094  -1.11852     3   %  0.0258
     1.500       1    49.69350   -0.50756    49.18593  -0.90352     4   %  0.0388
     2.000       1    49.61758    0.29951    49.91709  -0.17236     5   %  0.0519
     2.500       1    49.51970    1.64472    51.16442   1.07496     6   %  0.0651
     3.000      10    49.29484    0.79563    50.09047   0.00102     7   %  0.0883
     3.500      13    49.01150    1.07974    50.09124   0.00178     8   %  0.1111
     4.000      16    48.60548    1.48526    50.09074   0.00128     9   %  0.1378
     4.500      19    48.03395    2.05707    50.09103   0.00157    10   %  0.1693
     5.000      22    47.24566    2.84554    50.09120   0.00174    11   %  0.2064
     5.500      26    46.18751    3.90429    50.09180   0.00235    12   %  0.2501
     6.000      29    44.81642    5.27635    50.09276   0.00331    13   %  0.3014
     6.500      32    43.11903    6.97520    50.09424   0.00479    14   %  0.3611
     7.000      34    41.13468    8.96194    50.09662   0.00717    15   %  0.4298
     7.500      37    38.97431   11.11927    50.09358   0.00414    16   %  0.5079
     8.000      41    36.81652   13.27522    50.09173   0.00229    17   %  0.5954
     8.500      46    34.87573   15.21483    50.09056   0.00112    18   %  0.6917
     9.000      51    33.34038   16.74973    50.09011   0.00068    19   %  0.7960
     9.500      56    32.29750   17.79216    50.08966   0.00024    20   %  0.9070
    10.000      61    31.68289   18.40643    50.08932  -0.00010    21   %  1.0233
    10.500      66    31.29105   18.79812    50.08917  -0.00024    22   %  1.1435
    11.000      71    30.85471   19.23454    50.08925  -0.00015    23   %  1.2666
    11.500      76    30.16393   19.92555    50.08948   0.00009    24   %  1.3920
    12.000      81    29.16668   20.92304    50.08973   0.00034    25   %  1.5192
    12.500      86    27.99738   22.09247    50.08985   0.00047    26   %  1.6486
    13.000      91    26.91880   23.17100    50.08980   0.00043    27   %  1.7803
    13.500      96    26.20956   23.88006    50.08962   0.00025    28   %  1.9147
    14.000     101    26.05409   24.03530    50.08939   0.00004    29   %  2.0517
    14.500     106    26.48155   23.60767    50.08922  -0.00013    30   %  2.1910
    15.000     111    27.36797   22.72117    50.08913  -0.00021    31   %  2.3320
    15.500     116    28.48532   21.60384    50.08916  -0.00017    32   %  2.4740
    16.000     121    29.56743   20.52175    50.08918  -0.00015    33   %  2.6161
    16.500     125    30.36855   19.72072    50.08927  -0.00004    34   %  2.7575
    17.000     129    30.70233   19.38708    50.08942   0.00010    35   %  2.8975
    17.500     134    30.46371   19.62573    50.08945   0.00015    36   %  3.0357
    18.000     139    29.63699   20.45243    50.08942   0.00012    37   %  3.1720
    18.500     144    28.29741   21.79201    50.08942   0.00013    38   %  3.3063
    19.000     149    26.60731   23.48213    50.08944   0.00016    39   %  3.4388
    19.500     154    24.80296   25.28650    50.08946   0.00019    40   %  3.5699
    20.000     159    23.16510   26.92433    50.08943   0.00017    41   %  3.6999
    20.500     164    21.96678   28.12255    50.08933   0.00007    42   %  3.8289
    21.000     169    21.40204   28.68710    50.08914  -0.00011    43   %  3.9570
    21.500     174    21.51352   28.57538    50.08891  -0.00033    44   %  4.0841
    22.000     179    22.15150   27.93724    50.08874  -0.00049    45   %  4.2094
    22.500     184    22.99647   27.09227    50.08874  -0.00048    46   %  4.3323
    23.000     189    23.65496   26.43397    50.08893  -0.00028    47   %  4.4518
    23.500     193    23.80025   26.28891    50.08916  -0.00003    48   %  4.5672
    24.000     197    23.29899   26.79060    50.08960   0.00041    49   %  4.6781
    24.500     202    22.26475   27.82477    50.08952   0.00034    50   %  4.7844
    25.000     207    21.00844   29.08104    50.08948   0.00032    51   %  4.8866
    25.500     212    19.91442   30.17489    50.08932   0.00016    52   %  4.9856
    26.000     217    19.30327   30.78581    50.08908  -0.00006    53   %  5.0824
    26.500     222    19.33797   30.75091    50.08888  -0.00026    54   %  5.1779
    27.000     227    20.00101   30.08775    50.08876  -0.00036    55   %  5.2732
    27.500     232    21.13325   28.95549    50.08875  -0.00037    56   %  5.3692
    28.000     237    22.50334   27.58548    50.08882  -0.00029    57   %  5.4669
    28.500     242    23.87529   26.21365    50.08894  -0.00016    58   %  5.5679
    29.000     247    25.05618   25.03290    50.08907  -0.00002    59   %  5.6737
    29.500     252    25.91965   24.16953    50.08918   0.00010    60   %  5.7848
    30.000     257    26.41145   23.67780    50.08925   0.00018    61   %  5.9003
    30.500     262    26.54455   23.54474    50.08929   0.00023    62   %  6.0181
    31.000     267    26.38972   23.69960    50.08931   0.00026    63   %  6.1366
    31.500     272    26.06325   24.02608    50.08932   0.00027    64   %  6.2544
    32.000     277    25.71001   24.37928    50.08929   0.00025    65   %  6.3707
    32.500     282    25.47857   24.61067    50.08924   0.00021    66   %  6.4845
    33.000     287    25.48682   24.60230    50.08912   0.00010    67   %  6.5954
    33.500     292    25.78344   24.30552    50.08897  -0.00005    68   %  6.7028
    34.000     297    26.31898   23.76984    50.08882  -0.00018    69   %  6.8061
    34.500     302    26.94440   23.14436    50.08876  -0.00024    70   %  6.9049
    35.000     307    27.44928   22.63955    50.08882  -0.00016    71   %  6.9993
    35.500     312    27.63393   22.45508    50.08901   0.00003    72   %  7.0895
    36.000     317    27.38938   22.69984    50.08923   0.00025    73   %  7.1760
    36.500     322    26.74890   23.34047    50.08937   0.00040    74   %  7.2594
    37.000     327    25.88428   24.20514    50.08942   0.00046    75   %  7.3405
    37.500     332    25.04583   25.04351    50.08935   0.00040    76   %  7.4199
    38.000     337    24.47330   25.61590    50.08920   0.00026    77   %  7.4981
    38.500     342    24.31663   25.77239    50.08902   0.00009    78   %  7.5754
    39.000     347    24.59690   25.49199    50.08889  -0.00003    79   %  7.6519
    39.500     352    25.21474   24.87408    50.08882  -0.00009    80   %  7.7275
    40.000     357    25.99268   24.09615    50.08883  -0.00007    81   %  7.8021
    40.500     362    26.72843   23.36045    50.08889  -0.00001    82   %  7.8756
    41.000     367    27.24063   22.84833    50.08897   0.00008    83   %  7.9480
    41.500     372    27.39734   22.69170    50.08904   0.00015    84   %  8.0192
    42.000     376    27.12841   22.96068    50.08909   0.00021    85   %  8.0893
    42.500     381    26.42711   23.66198    50.08909   0.00023    86   %  8.1583
    43.000     386    25.34726   24.74182    50.08908   0.00023    87   %  8.2262
    43.500     391    23.99927   26.08982    50.08908   0.00024    88   %  8.2930
    44.000     396    22.54413   27.54493    50.08905   0.00022    89   %  8.3589
    44.500     401    21.17989   28.90918    50.08907   0.00024    90   %  8.4240
    45.000     406    20.11274   29.97626    50.08900   0.00019    91   %  8.4885
    45.500     411    19.51019   30.57869    50.08888   0.00007    92   %  8.5525
    46.000     416    19.44415   30.64455    50.08871  -0.00009    93   %  8.6162
    46.500     421    19.84648   30.24205    50.08853  -0.00025    94   %  8.6797
    47.000     426    20.50526   29.58318    50.08844  -0.00034    95   %  8.7431
    47.500     431    21.11888   28.96959    50.08847  -0.00030    96   %  8.8063
    48.000     436    21.39784   28.69078    50.08862  -0.00014    97   %  8.8694
    48.500     441    21.17432   28.91447    50.08879   0.00005    98   %  8.9325
    49.000     446    20.46799   29.62091    50.08890   0.00016    99   %  8.9959
    49.500     451    19.47370   30.61518    50.08888   0.00016   100   %  9.0599
    50.000     456    18.47653   31.61221    50.08874   0.00003   101   %  9.1252
    50.500     461    17.73628   32.35225    50.08853  -0.00017   102   %  9.1922
    51.000     466    17.39437   32.69396    50.08833  -0.00036   103   %  9.2614
    51.500     471    17.43771   32.65049    50.08821  -0.00048   104   %  9.3332
    52.000     476    17.72256   32.36564    50.08819  -0.00047   105   %  9.4080
    52.500     481    18.03537   32.05305    50.08842  -0.00024   106   %  9.4859
    53.000     486    18.15957   31.92889    50.08846  -0.00019   107   %  9.5673
    53.500     491    17.92774   32.16088    50.08862  -0.00002   108   %  9.6522
    54.000     496    17.24867   32.84007    50.08874   0.00012   109   %  9.7410
    54.500     501    16.11499   33.97384    50.08883   0.00021   110   %  9.8339
    55.000     506    14.59798   35.49091    50.08889   0.00029   111   %  9.9310
    55.500     511    12.83582   37.25311    50.08893   0.00034   112   % 10.0327
    56.000     516    11.01783   39.07113    50.08895   0.00038   113   % 10.1391
    56.500     521     9.36326   40.72568    50.08894   0.00037   114   % 10.2502
    57.000     526     8.09153   41.99734    50.08887   0.00032   115   % 10.3658
    57.500     531     7.38155   42.70718    50.08873   0.00019   116   % 10.4856
    58.000     536     7.32557   42.76295    50.08853   0.00001   117   % 10.6092
    58.500     541     7.89118   42.19714    50.08832  -0.00018   118   % 10.7359
    59.000     546     8.91194   41.17623    50.08818  -0.00031   119   % 10.8650
    59.500     551    10.12234   39.96582    50.08816  -0.00032   120   % 10.9958
    60.000     556    11.23457   38.85369    50.08826  -0.00020   121   % 11.1278
    60.500     561    12.03251   38.05592    50.08843  -0.00002   122   % 11.2607
    61.000     566    12.44451   37.64407    50.08859   0.00015   123   % 11.3943
    61.500     571    12.56278   37.52589    50.08866   0.00024   124   % 11.5288
    62.000     576    12.60033   37.48831    50.08864   0.00023   125   % 11.6643
    62.500     581    12.80588   37.28264    50.08852   0.00012   126   % 11.8011
    63.000     586    13.37495   36.71341    50.08836  -0.00002   127   % 11.9393
    63.500     591    14.39265   35.69558    50.08822  -0.00015   128   % 12.0789
    64.000     596    15.82384   34.26431    50.08815  -0.00021   129   % 12.2200
    64.500     601    17.54252   32.54566    50.08818  -0.00016   130   % 12.3624
    65.000     606    19.37811   30.71010    50.08821  -0.00012   131   % 12.5059
    65.500     611    21.15735   28.93095    50.08829  -0.00003   132   % 12.6505
    66.000     616    22.73003   27.35835    50.08837   0.00006   133   % 12.7959
    66.500     621    23.97924   26.10920    50.08844   0.00014   134   % 12.9420
    67.000     626    24.82354   25.26497    50.08850   0.00021   135   % 13.0885
    67.500     631    25.21940   24.86916    50.08856   0.00027   136   % 13.2353
    68.000     636    25.16891   24.91970    50.08861   0.00033   137   % 13.3819
    68.500     641    24.73141   25.35723    50.08864   0.00037   138   % 13.5279
    69.000     646    24.03210   26.05653    50.08863   0.00037   139   % 13.6729
    69.500     651    23.25682   26.83183    50.08865   0.00040   140   % 13.8163
    70.000     656    22.62316   27.46543    50.08860   0.00035   141   % 13.9577
    70.500     661    22.32722   27.76126    50.08848   0.00024   142   % 14.0968
    71.000     666    22.47832   27.60998    50.08831   0.00008   143   % 14.2331
    71.500     671    23.04786   27.04027    50.08813  -0.00008   144   % 14.3665
    72.000     676    23.86069   26.22733    50.08802  -0.00019   145   % 14.4967
    72.500     681    24.64375   25.44425    50.08801  -0.00019   146   % 14.6237
    73.000     686    25.11994   24.96815    50.08809  -0.00010   147   % 14.7474
    73.500     691    25.11045   24.97776    50.08822   0.00004   148   % 14.8682
    74.000     696    24.60059   25.48771    50.08830   0.00013   149   % 14.9864
    74.500     701    23.74045   26.34785    50.08830   0.00014   150   % 15.1024
    75.000     706    22.78284   27.30536    50.08820   0.00005   151   % 15.2167
    75.500     711    21.99101   28.09699    50.08801  -0.00014   152   % 15.3296
    76.000     716    21.55784   28.53003    50.08787  -0.00026   153   % 15.4409
    76.500     721    21.56470   28.52306    50.08776  -0.00036   154   % 15.5503
    77.000     726    21.98480   28.10293    50.08774  -0.00038   155   % 15.6573
    77.500     731    22.71417   27.37359    50.08777  -0.00034   156   % 15.7614
    78.000     736    23.60783   26.47999    50.08781  -0.00028   157   % 15.8625
    78.500     741    24.50611   25.58174    50.08785  -0.00024   158   % 15.9605
    79.000     746    25.25009   24.83778    50.08788  -0.00020   159   % 16.0554
    79.500     751    25.69308   24.39483    50.08791  -0.00016   160   % 16.1475
    80.000     756    25.71750   24.37048    50.08798  -0.00008   161   % 16.2371
    80.500     761    25.25971   24.82836    50.08808   0.00003   162   % 16.3245
    81.000     766    24.33687   25.75132    50.08819   0.00015   163   % 16.4100
    81.500     771    23.06298   27.02532    50.08829   0.00026   164   % 16.4938
    82.000     776    21.64080   28.44753    50.08833   0.00031   165   % 16.5760
    82.500     781    20.32208   29.76619    50.08827   0.00026   166   % 16.6567
    83.000     786    19.34230   30.74582    50.08812   0.00011   167   % 16.7360
    83.500     791    18.84969   31.23824    50.08792  -0.00007   168   % 16.8138
    84.000     796    18.85694   31.23082    50.08777  -0.00021   169   % 16.8898
    84.500     801    19.23851   30.84919    50.08770  -0.00027   170   % 16.9638
    85.000     806    19.77777   30.30997    50.08774  -0.00022   171   % 17.0357
    85.500     811    20.24556   29.84228    50.08784  -0.00011   172   % 17.1051
    86.000     816    20.47724   29.61074    50.08798   0.00004   173   % 17.1720
    86.500     821    20.41731   29.67071    50.08803   0.00010   174   % 17.2364
    87.000     826    20.11799   29.97004    50.08803   0.00011   175   % 17.2982
    87.500     831    19.69952   30.38844    50.08796   0.00005   176   % 17.3576
    88.000     836    19.29686   30.79099    50.08785  -0.00004   177   % 17.4148
    88.500     841    19.01855   31.06920    50.08775  -0.00014   178   % 17.4701
    89.000     846    18.93217   31.15553    50.08770  -0.00017   179   % 17.5237
    89.500     851    19.07297   31.01475    50.08772  -0.00014   180   % 17.5761
    90.000     856    19.46072   30.62710    50.08781  -0.00004   181   % 17.6279
    90.500     861    20.10709   29.98073    50.08783  -0.00002   182   % 17.6797
    91.000     866    21.00614   29.08168    50.08782  -0.00001   183   % 17.7322
    91.500     871    22.11199   27.97578    50.08777  -0.00005   184   % 17.7864
    92.000     876    23.31989   26.76782    50.08771  -0.00010   185   % 17.8428
    92.500     881    24.46769   25.62000    50.08769  -0.00011   186   % 17.9021
    93.000     886    25.36801   24.71973    50.08774  -0.00006   187   % 17.9647
    93.500     891    25.86613   24.22172    50.08785   0.00006   188   % 18.0307
    94.000     896    25.90290   24.18508    50.08798   0.00020   189   % 18.1002
    94.500     901    25.55372   24.53433    50.08806   0.00029   190   % 18.1730
    95.000     906    25.02051   25.06753    50.08805   0.00029   191   % 18.2486
    95.500     911    24.57174   25.51621    50.08795   0.00019   192   % 18.3269
    96.000     916    24.45065   25.63712    50.08777   0.00002   193   % 18.4074
    96.500     921    24.78698   25.30058    50.08757  -0.00017   194   % 18.4897
    97.000     926    25.54830   24.53911    50.08740  -0.00032   195   % 18.5735
    97.500     931    26.55063   23.53671    50.08733  -0.00039   196   % 18.6585
    98.000     936    27.52325   22.56412    50.08737  -0.00034   197   % 18.7444
    98.500     941    28.20028   21.88719    50.08748  -0.00023   198   % 18.8309
    99.000     946    28.40336   21.68424    50.08760  -0.00009   199   % 18.9178
    99.500     951    28.08653   22.00117    50.08770   0.00001   200   % 19.0050



 **********************
 *                    *
 * JOB ENDED NORMALLY *
 *                    *
 **********************



 TOTAL JOB TIME:            15.33 SECONDS

 == MOPAC DONE ==
