 *******************************************************************************
 ** Site#: 23746        For non-commercial use only           Version 21.065M **
 *******************************************************************************
 ** Cite this program as: MOPAC2016, Version: 21.065M, James J. P. Stewart,   **
 ** Stewart Computational Chemistry, web: HTTP://OpenMOPAC.net. Days left: 359**
 *******************************************************************************
 **                                                                           **
 **                                MOPAC2016                                  **
 **                                                                           **
 *******************************************************************************

                              PM7 CALCULATION RESULTS

 *******************************************************************************
 *  CALCULATION DONE:                                Fri Mar 12 16:30:01 2021  *
 *  GEO-OK     - OVERRIDE INTERATOMIC DISTANCE AND OTHER SAFETY CHECKS
 *  INVERT     - REVERSE ALL OPTIMIZATION FLAGS
 *  GEO_DAT    - DATA SET GEOMETRY IS IN FILE "Transition state 1-3.arc"
 *  MOZYME     - USE LOCALIZED M.O.s IN SOLVING THE SCF EQUATIONS
 *
 *
 *
 *                 CHARGE ON SYSTEM = -1
 *
 *
 *
 *  EPS=78.4   - USE ANDREAS KLAMT'S COSMO IMPLICIT SOLVATION MODEL
 *  FORCETS    - VERIFY THAT TRANSITION STATE IS GENUINE
 *  T=         - A TIME OF 1.0 WEEKS REQUESTED
 *  DUMP=N     - RESTART FILE WRITTEN EVERY 7200.0 SECONDS REQUESTED
 *  OUTPUT     - REDUCE OUTPUT, BUT PRINT:
 *           N - NORMAL COORDINATES
 *  ISOTOPE    - SAVE THE FORCE MATRIX FOR USE LATER
 *******************************************************************************
invert EPS=78.4 geo-ok GEO_DAT="Transition state 1-3.arc" T=1W CHARGE=-1 MOZYME FORCETS output(N) isotope
 Verify that the Chymotrypsin Step 1-3 transition state is valid

 

 General Reference for PM7:
 "Optimization of Parameters for Semiempirical Methods VI: More Modifications to the 
 NDDO Approximations and Re-optimization of Parameters", J. J. P. Stewart, J. Mol. Mod., 1:32, 19 (2013)
 https://link.springer.com/article/10.1007/s00894-012-1667-x

           Empirical Formula: C1115 H2449 N302 O704 S16  =  4586 atoms


   Ion                PDB Label        Charge     Distance        PDB label for Salt Bridge   Charge
 
    1     (ATOM    144  N   SER E  11)   +1         2.49         (ATOM    214  OE2 GLU F  20)   -1
    2     (ATOM    148  N   ILE F  16)   +1         2.60         (ATOM   2727  OD2 ASP G 194)   -1
    3     (ATOM   2142  NH1 ARG G 154)   +1         2.57         (ATOM    228  OE1 GLU F  21)   -1

                 All other ions

 
    1     (ATOM   2737  OG  SER G 195)   +1
 
    1     (ATOM   1445  OD2 ASP F 102)   -1
    2     (ATOM   3486  O   TRP C 252)   -1

          COMPUTED CHARGE ON SYSTEM: -1, THIS IS THE SAME AS THE CHARGE DEFINED IN THE DATA-SET.


          HEAT OF FORMATION =  -47742.575524 KCALS/MOLE


          GRADIENT NORM =  34.94827


          TIME FOR SCF CALCULATION = 1077.94

          TIME FOR DERIVATIVES     =  908.31


    FIRST DERIVATIVES WILL BE USED IN THE CALCULATION OF SECOND DERIVATIVES

          ESTIMATED TIME TO COMPLETE CALCULATION =   107257.50 SECONDS
 STEP:   1 TIME =  1146.60 SECS, INTEGRAL =   1146.60 TIME LEFT: 601667.15
 STEP:   2 TIME =  1576.51 SECS, INTEGRAL =   2723.11 TIME LEFT: 600090.64
 STEP:   3 TIME =  1366.52 SECS, INTEGRAL =   4089.63 TIME LEFT: 598724.12
 STEP:   4 TIME =   925.17 SECS, INTEGRAL =   5014.80 TIME LEFT: 597798.95
 STEP:   5 TIME =  1050.12 SECS, INTEGRAL =   6064.91 TIME LEFT: 596748.84
 STEP:   6 RESTART FILE WRITTEN, INTEGRAL =   7925.45 TIME LEFT: 594888.30
 STEP:   7 TIME =  1136.84 SECS, INTEGRAL =   9062.30 TIME LEFT: 593751.45
 STEP:   8 TIME =   896.62 SECS, INTEGRAL =   9958.91 TIME LEFT: 592854.84
 STEP:   9 TIME =  1086.28 SECS, INTEGRAL =  11045.20 TIME LEFT: 591768.55
 STEP:  10 TIME =   815.36 SECS, INTEGRAL =  11860.55 TIME LEFT: 590953.20
 STEP:  11 TIME =   952.33 SECS, INTEGRAL =  12812.88 TIME LEFT: 590000.87
 STEP:  12 TIME =   816.29 SECS, INTEGRAL =  13629.17 TIME LEFT: 589184.58
 STEP:  13 RESTART FILE WRITTEN, INTEGRAL =  14433.77 TIME LEFT: 588379.98
 STEP:  14 TIME =   989.33 SECS, INTEGRAL =  15423.10 TIME LEFT: 587390.65
 STEP:  15 TIME =  1171.95 SECS, INTEGRAL =  16595.05 TIME LEFT: 586218.70
 STEP:  16 TIME =  1355.71 SECS, INTEGRAL =  17950.76 TIME LEFT: 584862.99
 STEP:  17 TIME =   868.41 SECS, INTEGRAL =  18819.16 TIME LEFT: 583994.59
 STEP:  18 TIME =  1492.28 SECS, INTEGRAL =  20311.45 TIME LEFT: 582502.30
 STEP:  19 TIME =  1549.42 SECS, INTEGRAL =  21860.87 TIME LEFT: 580952.88
 STEP:  20 RESTART FILE WRITTEN, INTEGRAL =  22900.31 TIME LEFT: 579913.44
 STEP:  21 TIME =   884.05 SECS, INTEGRAL =  23784.37 TIME LEFT: 579029.38
 STEP:  22 TIME =   933.29 SECS, INTEGRAL =  24717.66 TIME LEFT: 578096.09
 STEP:  23 TIME =  1247.53 SECS, INTEGRAL =  25965.19 TIME LEFT: 576848.56
 STEP:  24 TIME =   892.75 SECS, INTEGRAL =  26857.94 TIME LEFT: 575955.81
 STEP:  25 TIME =   771.50 SECS, INTEGRAL =  27629.44 TIME LEFT: 575184.31
 STEP:  26 TIME =  1517.18 SECS, INTEGRAL =  29146.62 TIME LEFT: 573667.13
 STEP:  27 RESTART FILE WRITTEN, INTEGRAL =  29854.46 TIME LEFT: 572959.29

          MOLECULAR WEIGHT =31867.17



          ROTATIONAL CONSTANTS IN CM(-1)

          A =    0.00000350   B =    0.00000292   C =    0.00000256



           PRINCIPAL MOMENTS OF INERTIA IN UNITS OF 10**(-40)*GRAM-CM**2

          A =  8001213.1535   B =  9602296.3004   C = 10921606.6434



          HEAT OF FORMATION =  -47742.508508 KCALS/MOLE

          ZERO POINT ENERGY      51.427 KCAL/MOL

         NOTE: SYSTEM IS NOT A GROUND STATE, THEREFORE ZERO POINT
         ENERGY IS NOT MEANINGFULL. ZERO POINT ENERGY PRINTED
         DOES NOT INCLUDE THE  1 IMAGINARY FREQUENCIES


                         Atoms used in the FORCETS calculation

   1     C(ATOM   2736  CB  SER G 195)  26.48012078 +1   3.14430157 +1  34.22660832 +1
   2     O(ATOM   2737  OG  SER G 195)  27.21218662 +1   2.91127496 +1  35.42196910 +1
   3     H(ATOM   2742  HG  SER G 195)  28.24262735 +1   2.20337070 +1  34.90060017 +1
   4     C(ATOM   3484  CA  TRP C 252)  27.40773074 +1   2.11015896 +1  37.81199372 +1
   5     C(ATOM   3485  C   TRP C 252)  26.89450720 +1   1.70171490 +1  36.37732711 +1
   6     O(ATOM   3486  O   TRP C 252)  25.69062249 +1   1.33123127 +1  36.31740100 +1
   7     N(ATOM   3507  N   THR C 253)  27.93412067 +1   0.89094626 +1  35.67520045 +1
   8     C(ATOM   3508  CA  THR C 253)  27.63607261 +1  -0.47649651 +1  35.20258598 +1
   9     H(ATOM   3514  H   THR C 253)  28.82324061 +1   0.87070304 +1  36.22170070 +1


           NORMAL COORDINATE ANALYSIS (Total motion = 1 Angstrom)


   Root No.       1         2         3         4         5         6         7         8

                 1         2         3         4         5         6         7         8     

                -346.1      96.4     190.4     258.6     301.2     369.3     399.2     574.0
  
           1   -0.0001    0.0237   -0.0053    0.0102    0.0082    0.0315   -0.0223    0.1036
           2    0.0065   -0.0024    0.0148   -0.0105   -0.0055   -0.0010    0.0263    0.0087
           3   -0.0272    0.0131   -0.0157    0.0280    0.0235    0.0187    0.0221    0.2237
           4    0.0897    0.0532    0.0433   -0.0743   -0.0776    0.1048   -0.1152    0.1332
           5   -0.0366    0.0479    0.0393    0.0173    0.0144    0.0364    0.1664    0.0398
           6   -0.0795    0.0004   -0.0271    0.0835    0.0924   -0.0061    0.1168    0.2284
           7   -0.0944    0.3992   -0.1806    0.2016    0.0496   -0.0081   -0.0960    0.0130
           8    0.3865    0.1625   -0.0552    0.0685    0.0216   -0.0561    0.0980   -0.0169
           9    0.0417   -0.1238    0.0259    0.1800    0.3171    0.2061   -0.0148   -0.1003
          10    0.0023   -0.0011   -0.0084    0.0020   -0.0269    0.0288    0.0051    0.0060
          11   -0.0021    0.0008    0.0068    0.0086   -0.0091    0.0139    0.0075   -0.0289
          12    0.0079   -0.0284    0.0033    0.0203   -0.0082    0.0437    0.0013    0.0805
          13    0.0229    0.0642   -0.0771   -0.0726   -0.0799    0.1284    0.0062    0.0056
          14   -0.1428    0.1011    0.0827    0.0493   -0.0214    0.0143    0.1061   -0.1178
          15    0.0600   -0.1222    0.0085    0.0277   -0.0102    0.0661   -0.0234    0.1234
          16   -0.0089    0.0480   -0.1488   -0.0888   -0.0663    0.1505    0.0413   -0.0346
          17    0.0090    0.0824    0.3320    0.0489   -0.0704    0.0640   -0.0004   -0.0009
          18    0.0054   -0.1089   -0.0861    0.2139   -0.1678    0.0136    0.0032   -0.0153
          19   -0.0583    0.0517   -0.0997   -0.0546   -0.0078    0.0845   -0.0037   -0.0179
          20   -0.1140    0.0274   -0.0011    0.0167   -0.0049   -0.0203    0.1032   -0.0303
          21    0.1177   -0.0638    0.0335    0.0294    0.0544    0.0705   -0.1164    0.0290
          22   -0.0163    0.0053   -0.0194   -0.0093    0.0009    0.0086    0.0035   -0.0020
          23   -0.0489    0.0116   -0.0010    0.0119    0.0051    0.0077    0.0419   -0.0179
          24    0.0190   -0.0029    0.0061    0.0007   -0.0017    0.0082   -0.0072    0.0045
          25    0.0053    0.0054   -0.0930   -0.0984   -0.0570    0.0876    0.0277    0.0145
          26   -0.0387   -0.0071    0.0177   -0.0351   -0.0713   -0.0960    0.1490   -0.0097
          27   -0.0001   -0.0001    0.0275    0.1024    0.1364    0.0732   -0.1726   -0.0177


   Root No.       9        10        11        12        13        14        15        16

                 9        10        11        12        13        14        15        16     

                 646.6     704.2     729.3     858.5     891.3     906.9     918.6     930.0
  
           1    0.0809   -0.0357    0.0089   -0.0200    0.0112   -0.2565    0.2591   -0.0460
           2    0.0899   -0.0025   -0.0163    0.0386   -0.0906    0.2647    0.2798   -0.0758
           3   -0.0474   -0.0760    0.0487    0.0067    0.0215    0.1816   -0.1159    0.0211
           4    0.2309   -0.0670    0.0743   -0.0348   -0.0110    0.0195   -0.0901    0.0194
           5    0.2400    0.0634   -0.1061    0.0534   -0.0050   -0.0447   -0.0985    0.0363
           6   -0.1135   -0.0644    0.0267    0.0086   -0.0031   -0.0809    0.0672   -0.0121
           7    0.0062    0.0520   -0.0515   -0.0016    0.0226    0.0344   -0.0066    0.0030
           8   -0.0282   -0.0032    0.0410   -0.0050   -0.0063   -0.0133   -0.0026    0.0039
           9    0.0285   -0.0472   -0.0080   -0.0301    0.0014    0.0344   -0.0028   -0.0088
          10   -0.0235    0.0071   -0.0172   -0.0288   -0.0454    0.0179    0.0899    0.4553
          11    0.0203    0.0565    0.0753    0.0306    0.2323    0.0627    0.1449    0.0348
          12   -0.0370    0.2115    0.0405   -0.0689   -0.1046    0.0195    0.0418   -0.0844
          13   -0.0715   -0.0337   -0.0380    0.0090   -0.0029    0.0037    0.0240   -0.0228
          14    0.0653    0.0168    0.1756   -0.0369   -0.0230   -0.0152   -0.0612    0.0357
          15   -0.0092    0.1621   -0.0381    0.0273    0.1073   -0.0094   -0.0862    0.0518
          16   -0.0476   -0.0039    0.0048    0.0102   -0.0006   -0.0069    0.0003   -0.0293
          17   -0.0602   -0.0093   -0.0247    0.0057    0.0046   -0.0006    0.0121   -0.0191
          18    0.0153   -0.0274    0.0005    0.0021   -0.0085   -0.0020   -0.0012   -0.0170
          19   -0.0846   -0.0220   -0.0097    0.0299   -0.0241   -0.0096    0.0253   -0.0322
          20    0.0475    0.0376   -0.0193   -0.0472    0.0374    0.0154   -0.0274   -0.0199
          21   -0.0260    0.1122    0.0997    0.1279   -0.0306   -0.0426   -0.0336    0.0266
          22   -0.0139   -0.0029   -0.0118   -0.0077    0.0068    0.0062    0.0077   -0.0156
          23    0.0171    0.0355    0.0083   -0.0086    0.0162    0.0029   -0.0216   -0.0090
          24    0.0017    0.0241    0.0175    0.0056    0.0103   -0.0006   -0.0100   -0.0043
          25   -0.0683   -0.0516   -0.1261   -0.1481    0.1362    0.0962    0.0440   -0.0969
          26    0.0970   -0.0198   -0.1393   -0.3176    0.2393    0.1646    0.0081   -0.1518
          27   -0.0565    0.1450    0.2694    0.4488   -0.3142   -0.2284   -0.0578    0.1279


   Root No.      17        18        19        20        21        22        23        24

                17        18        19        20        21        22        23        24     

                 977.3    1172.4    1379.1    1509.9    1736.7    2271.1    2930.3    3291.0
  
           1    0.0550    0.1792    0.0209   -0.0012   -0.0020    0.0004   -0.0003   -0.0000
           2    0.0943   -0.0427    0.0024   -0.0000   -0.0011   -0.0004   -0.0004    0.0001
           3   -0.0141    0.2514    0.0185   -0.0026   -0.0011    0.0018   -0.0005   -0.0001
           4   -0.0283   -0.1607   -0.0249    0.0048    0.0046   -0.0139    0.0017    0.0011
           5   -0.0887    0.0383    0.0115   -0.0024    0.0092    0.0133   -0.0048   -0.0020
           6   -0.0114   -0.2652   -0.0335    0.0056    0.0041    0.0046    0.0033   -0.0009
           7    0.0230   -0.0198   -0.0097   -0.0019    0.0001    0.0042    0.0003   -0.0003
           8    0.0190    0.0131    0.0040    0.0012    0.0034   -0.0100   -0.0019    0.0005
           9   -0.0133    0.0086    0.0034   -0.0004   -0.0071   -0.0035   -0.0008    0.0017
          10   -0.0107    0.0063   -0.0073    0.0067    0.0036    0.0007    0.0011    0.0000
          11   -0.1170   -0.0164   -0.0065   -0.0040   -0.0005   -0.0035   -0.0014    0.0005
          12   -0.1117    0.0215   -0.0013   -0.0060    0.0005   -0.0016   -0.0019    0.0005
          13   -0.0611   -0.0643    0.1954    0.0171   -0.0853    0.0122    0.0092   -0.0028
          14    0.1284   -0.0055    0.0681   -0.0089   -0.0066    0.0112   -0.0120   -0.0027
          15    0.2372   -0.0445    0.0270   -0.0085   -0.0167   -0.0153   -0.0133    0.0025
          16    0.0250    0.0254   -0.0728   -0.0045    0.0114    0.0023    0.0014   -0.0003
          17   -0.0013    0.0074   -0.0195    0.0002    0.0051   -0.0018    0.0002    0.0002
          18   -0.0142    0.0002   -0.0011    0.0011    0.0027   -0.0001    0.0001   -0.0001
          19   -0.0460   -0.0254    0.1805    0.1232    0.2003   -0.2341   -0.1363    0.0336
          20    0.0482    0.0468    0.0150    0.0843    0.0018   -0.3027    0.2144    0.0615
          21    0.0591   -0.0111    0.0842    0.1397    0.1879    0.4038    0.2360   -0.2109
          22   -0.0067    0.0018    0.0227    0.0885    0.0528   -0.0826   -0.1760   -0.4008
          23    0.0426    0.0236    0.0426    0.0950    0.0622   -0.2026    0.4370   -0.0943
          24    0.0262   -0.0034    0.0162    0.0681    0.0418    0.1310    0.0511    0.5163
          25    0.0259   -0.0937    0.3247    0.0616    0.4848    0.0096   -0.0866    0.0756
          26    0.1168    0.0524   -0.1827    0.4957   -0.1536    0.0875   -0.0596   -0.0003
          27   -0.1011    0.0896   -0.0207    0.3333   -0.0075   -0.0906   -0.1019    0.0762


   Root No.      25        26        27

                25        26        27     

                3427.6    3994.0    4509.8
  
           1    0.0001    0.0001   -0.0001
           2    0.0001    0.0002   -0.0002
           3   -0.0000    0.0001   -0.0004
           4    0.0009   -0.0003    0.0026
           5   -0.0002    0.0037   -0.0041
           6    0.0000   -0.0006    0.0010
           7   -0.0007   -0.0007   -0.0003
           8   -0.0001    0.0005    0.0009
           9    0.0003   -0.0005   -0.0001
          10    0.0002    0.0001    0.0007
          11   -0.0004    0.0001   -0.0006
          12   -0.0005    0.0002   -0.0011
          13   -0.0000   -0.0079    0.0022
          14   -0.0029    0.0018   -0.0051
          15   -0.0026    0.0021   -0.0047
          16   -0.0005   -0.0015    0.0005
          17    0.0003    0.0003    0.0004
          18    0.0003    0.0006    0.0001
          19    0.1373    0.4641    0.0036
          20    0.1095   -0.1310    0.4924
          21    0.0971    0.1238    0.1959
          22    0.3947   -0.2195   -0.1108
          23   -0.0313    0.0009   -0.3895
          24    0.3676   -0.0844   -0.1316
          25   -0.1934   -0.2132   -0.0093
          26   -0.0771    0.0391   -0.0156
          27   -0.1422   -0.1280   -0.0218


           MASS-WEIGHTED COORDINATE ANALYSIS (NORMAL COORDINATES)


   Root No.       1         2         3         4         5         6         7         8

                 1         2         3         4         5         6         7         8     

                -346.1      96.4     190.4     258.6     301.2     369.3     399.2     574.0
  
           1   -0.0003    0.0472   -0.0087    0.0220    0.0185    0.0852   -0.0766    0.2528
           2    0.0154   -0.0049    0.0245   -0.0225   -0.0124   -0.0027    0.0905    0.0213
           3   -0.0650    0.0262   -0.0258    0.0601    0.0530    0.0507    0.0758    0.5457
           4    0.1982    0.0981    0.0661   -0.1478   -0.1618    0.2625   -0.3667    0.3009
           5   -0.0809    0.0883    0.0600    0.0344    0.0300    0.0911    0.5296    0.0899
           6   -0.1757    0.0007   -0.0414    0.1661    0.1927   -0.0153    0.3716    0.5159
           7   -0.2088    0.7362   -0.2758    0.4012    0.1034   -0.0203   -0.3055    0.0294
           8    0.8543    0.2998   -0.0843    0.1363    0.0451   -0.1404    0.3119   -0.0381
           9    0.0922   -0.2283    0.0396    0.3582    0.6616    0.5162   -0.0471   -0.2266
          10    0.0060   -0.0024   -0.0148    0.0046   -0.0648    0.0831    0.0188    0.0156
          11   -0.0053    0.0017    0.0121    0.0197   -0.0219    0.0402    0.0274   -0.0754
          12    0.0202   -0.0604    0.0058    0.0466   -0.0198    0.1263    0.0046    0.2100
          13    0.0507    0.1184   -0.1177   -0.1446   -0.1666    0.3215    0.0196    0.0127
          14   -0.3156    0.1865    0.1262    0.0981   -0.0447    0.0358    0.3376   -0.2661
          15    0.1325   -0.2254    0.0130    0.0551   -0.0212    0.1656   -0.0745    0.2788
          16   -0.0320    0.1446   -0.3712   -0.2888   -0.2259    0.6159    0.2147   -0.1277
          17    0.0326    0.2482    0.8282    0.1591   -0.2401    0.2621   -0.0023   -0.0032
          18    0.0195   -0.3281   -0.2147    0.6954   -0.5720    0.0557    0.0165   -0.0563
          19   -0.0373    0.0276   -0.0441   -0.0315   -0.0047    0.0613   -0.0034   -0.0117
          20   -0.0730    0.0146   -0.0005    0.0096   -0.0029   -0.0147    0.0951   -0.0198
          21    0.0754   -0.0341    0.0148    0.0169    0.0329    0.0512   -0.1073    0.0190
          22   -0.0104    0.0028   -0.0086   -0.0054    0.0006    0.0063    0.0032   -0.0013
          23   -0.0313    0.0062   -0.0004    0.0069    0.0031    0.0056    0.0387   -0.0117
          24    0.0122   -0.0015    0.0027    0.0004   -0.0010    0.0059   -0.0067    0.0029
          25    0.0034    0.0029   -0.0411   -0.0568   -0.0344    0.0636    0.0255    0.0095
          26   -0.0248   -0.0038    0.0078   -0.0202   -0.0431   -0.0697    0.1373   -0.0064
          27   -0.0001   -0.0001    0.0122    0.0590    0.0825    0.0531   -0.1591   -0.0116


   Root No.       9        10        11        12        13        14        15        16

                 9        10        11        12        13        14        15        16     

                 646.6     704.2     729.3     858.5     891.3     906.9     918.6     930.0
  
           1    0.2081   -0.1099    0.0339   -0.0993    0.0338   -0.5872    0.5472   -0.0889
           2    0.2312   -0.0077   -0.0619    0.1913   -0.2740    0.6057    0.5908   -0.1466
           3   -0.1218   -0.2340    0.1854    0.0332    0.0650    0.4157   -0.2446    0.0407
           4    0.5498   -0.1909    0.2618   -0.1600   -0.0307    0.0413   -0.1761    0.0347
           5    0.5716    0.1806   -0.3737    0.2452   -0.0139   -0.0948   -0.1925    0.0651
           6   -0.2702   -0.1835    0.0941    0.0396   -0.0086   -0.1716    0.1313   -0.0217
           7    0.0148    0.1483   -0.1815   -0.0073    0.0632    0.0728   -0.0130    0.0053
           8   -0.0671   -0.0091    0.1445   -0.0230   -0.0178   -0.0282   -0.0051    0.0069
           9    0.0678   -0.1344   -0.0280   -0.1382    0.0039    0.0729   -0.0054   -0.0158
          10   -0.0647    0.0234   -0.0700   -0.1526   -0.1467    0.0439    0.2030    0.9413
          11    0.0559    0.1860    0.3061    0.1622    0.7513    0.1533    0.3270    0.0720
          12   -0.1018    0.6957    0.1646   -0.3650   -0.3382    0.0477    0.0943   -0.1744
          13   -0.1702   -0.0960   -0.1337    0.0412   -0.0080    0.0079    0.0469   -0.0408
          14    0.1554    0.0478    0.6187   -0.1694   -0.0644   -0.0323   -0.1196    0.0640
          15   -0.0220    0.4621   -0.1342    0.1256    0.3007   -0.0200   -0.1686    0.0927
          16   -0.1852   -0.0182    0.0276    0.0765   -0.0027   -0.0240    0.0011   -0.0857
          17   -0.2340   -0.0433   -0.1421    0.0430    0.0209   -0.0020    0.0387   -0.0559
          18    0.0595   -0.1277    0.0029    0.0157   -0.0387   -0.0070   -0.0040   -0.0496
          19   -0.0584   -0.0182   -0.0099    0.0398   -0.0195   -0.0059    0.0143   -0.0167
          20    0.0328    0.0310   -0.0197   -0.0628    0.0304    0.0095   -0.0155   -0.0103
          21   -0.0179    0.0927    0.1017    0.1701   -0.0248   -0.0262   -0.0190    0.0138
          22   -0.0096   -0.0024   -0.0121   -0.0103    0.0055    0.0038    0.0044   -0.0081
          23    0.0118    0.0294    0.0085   -0.0115    0.0132    0.0018   -0.0122   -0.0047
          24    0.0011    0.0199    0.0178    0.0075    0.0083   -0.0004   -0.0057   -0.0022
          25   -0.0471   -0.0426   -0.1287   -0.1970    0.1105    0.0591    0.0249   -0.0503
          26    0.0669   -0.0163   -0.1421   -0.4225    0.1942    0.1010    0.0046   -0.0788
          27   -0.0390    0.1198    0.2749    0.5970   -0.2550   -0.1402   -0.0327    0.0664


   Root No.      17        18        19        20        21        22        23        24

                17        18        19        20        21        22        23        24     

                 977.3    1172.4    1379.1    1509.9    1736.7    2271.1    2930.3    3291.0
  
           1    0.1585    0.4103    0.0812   -0.0068   -0.0110    0.0023   -0.0017   -0.0000
           2    0.2715   -0.0977    0.0093   -0.0001   -0.0061   -0.0024   -0.0025    0.0005
           3   -0.0405    0.5755    0.0718   -0.0149   -0.0060    0.0106   -0.0030   -0.0004
           4   -0.0754   -0.3406   -0.0899    0.0252    0.0241   -0.0755    0.0094    0.0054
           5   -0.2365    0.0812    0.0415   -0.0125    0.0476    0.0722   -0.0269   -0.0096
           6   -0.0304   -0.5622   -0.1206    0.0295    0.0214    0.0253    0.0187   -0.0043
           7    0.0613   -0.0420   -0.0349   -0.0099    0.0006    0.0228    0.0017   -0.0016
           8    0.0506    0.0278    0.0146    0.0061    0.0178   -0.0543   -0.0107    0.0026
           9   -0.0353    0.0182    0.0121   -0.0022   -0.0369   -0.0188   -0.0045    0.0085
          10   -0.0330    0.0155   -0.0305    0.0403    0.0218    0.0044    0.0071    0.0003
          11   -0.3601   -0.0402   -0.0269   -0.0244   -0.0028   -0.0218   -0.0091    0.0027
          12   -0.3437    0.0526   -0.0056   -0.0366    0.0031   -0.0100   -0.0123    0.0027
          13   -0.1628   -0.1363    0.7042    0.0899   -0.4436    0.0661    0.0520   -0.0137
          14    0.3424   -0.0117    0.2454   -0.0469   -0.0341    0.0608   -0.0679   -0.0134
          15    0.6325   -0.0943    0.0973   -0.0447   -0.0867   -0.0832   -0.0755    0.0122
          16    0.1088    0.0878   -0.4287   -0.0383    0.0970    0.0201    0.0129   -0.0024
          17   -0.0057    0.0256   -0.1148    0.0019    0.0430   -0.0157    0.0018    0.0013
          18   -0.0620    0.0008   -0.0063    0.0092    0.0233   -0.0008    0.0008   -0.0005
          19   -0.0356   -0.0156    0.1885    0.1874    0.3017   -0.3686   -0.2235    0.0476
          20    0.0372    0.0287    0.0157    0.1283    0.0027   -0.4766    0.3517    0.0872
          21    0.0457   -0.0068    0.0878    0.2124    0.2830    0.6359    0.3871   -0.2991
          22   -0.0052    0.0011    0.0237    0.1346    0.0795   -0.1300   -0.2887   -0.5683
          23    0.0329    0.0145    0.0444    0.1445    0.0937   -0.3190    0.7167   -0.1338
          24    0.0203   -0.0021    0.0169    0.1036    0.0629    0.2063    0.0838    0.7320
          25    0.0200   -0.0576    0.3390    0.0937    0.7302    0.0151   -0.1421    0.1072
          26    0.0903    0.0322   -0.1907    0.7539   -0.2313    0.1378   -0.0978   -0.0005
          27   -0.0781    0.0550   -0.0216    0.5069   -0.0114   -0.1427   -0.1671    0.1081


   Root No.      25        26        27

                25        26        27     

                3427.6    3994.0    4509.8
  
           1    0.0003    0.0008   -0.0006
           2    0.0004    0.0012   -0.0009
           3   -0.0002    0.0005   -0.0020
           4    0.0051   -0.0020    0.0132
           5   -0.0012    0.0213   -0.0210
           6    0.0001   -0.0035    0.0052
           7   -0.0038   -0.0041   -0.0018
           8   -0.0004    0.0027    0.0048
           9    0.0018   -0.0026   -0.0003
          10    0.0013    0.0006    0.0039
          11   -0.0025    0.0004   -0.0038
          12   -0.0033    0.0010   -0.0067
          13   -0.0000   -0.0452    0.0113
          14   -0.0157    0.0101   -0.0260
          15   -0.0141    0.0118   -0.0236
          16   -0.0043   -0.0137    0.0040
          17    0.0026    0.0032    0.0030
          18    0.0030    0.0053    0.0010
          19    0.2182    0.7654    0.0052
          20    0.1740   -0.2161    0.7229
          21    0.1544    0.2042    0.2876
          22    0.6273   -0.3620   -0.1627
          23   -0.0498    0.0015   -0.5718
          24    0.5842   -0.1392   -0.1932
          25   -0.3073   -0.3517   -0.0137
          26   -0.1225    0.0646   -0.0228
          27   -0.2259   -0.2111   -0.0321

 **********************
 *                    *
 * JOB ENDED NORMALLY *
 *                    *
 **********************



 TOTAL JOB TIME:         31842.56 SECONDS

 == MOPAC DONE ==
