 *******************************************************************************
 ** Site#: 23746        For non-commercial use only           Version 21.065M **
 *******************************************************************************
 ** Cite this program as: MOPAC2016, Version: 21.065M, James J. P. Stewart,   **
 ** Stewart Computational Chemistry, web: HTTP://OpenMOPAC.net. Days left: 359**
 *******************************************************************************
 **                                                                           **
 **                                MOPAC2016                                  **
 **                                                                           **
 *******************************************************************************

                              PM7 CALCULATION RESULTS

 *******************************************************************************
 *  CALCULATION DONE:                                Fri Mar 12 16:30:26 2021  *
 *  GEO-OK     - OVERRIDE INTERATOMIC DISTANCE AND OTHER SAFETY CHECKS
 *  INVERT     - REVERSE ALL OPTIMIZATION FLAGS
 *  GEO_DAT    - DATA SET GEOMETRY IS IN FILE "Transition state 5-6.arc"
 *  MOZYME     - USE LOCALIZED M.O.s IN SOLVING THE SCF EQUATIONS
 *
 *
 *
 *                 CHARGE ON SYSTEM = -1
 *
 *
 *
 *  EPS=78.4   - USE ANDREAS KLAMT'S COSMO IMPLICIT SOLVATION MODEL
 *  FORCETS    - VERIFY THAT TRANSITION STATE IS GENUINE
 *  T=         - A TIME OF 1.0 WEEKS REQUESTED
 *  DUMP=N     - RESTART FILE WRITTEN EVERY 7200.0 SECONDS REQUESTED
 *  OUTPUT     - REDUCE OUTPUT, BUT PRINT:
 *           N - NORMAL COORDINATES
 *  ISOTOPE    - SAVE THE FORCE MATRIX FOR USE LATER
 *******************************************************************************
invert EPS=78.4 geo-ok GEO_DAT="Transition state 5-6.arc" T=1W CHARGE=-1 MOZYME FORCETS output(N) isotope
 Verify that the Chymotrypsin Step 5-6 transition state is valid

 

 General Reference for PM7:
 "Optimization of Parameters for Semiempirical Methods VI: More Modifications to the 
 NDDO Approximations and Re-optimization of Parameters", J. J. P. Stewart, J. Mol. Mod., 1:32, 19 (2013)
 https://link.springer.com/article/10.1007/s00894-012-1667-x

           Empirical Formula: C1115 H2449 N302 O704 S16  =  4586 atoms


   Ion                PDB Label        Charge     Distance        PDB label for Salt Bridge   Charge
 
    1     (ATOM    144  N   SER E  11)   +1         2.49         (ATOM    215  OE2 GLU F  20)   -1
    2     (ATOM    149  N   ILE F  16)   +1         2.60         (ATOM   2729  OD2 ASP G 194)   -1
    3     (ATOM   2144  NH1 ARG G 154)   +1         2.57         (ATOM    229  OE1 GLU F  21)   -1
 

                 All other ions

    1     (ATOM   1446  OD2 ASP F 102)   -1

          COMPUTED CHARGE ON SYSTEM: -1, THIS IS THE SAME AS THE CHARGE DEFINED IN THE DATA-SET.


          HEAT OF FORMATION =  -47757.295783 KCALS/MOLE


          GRADIENT NORM =  23.66979


          TIME FOR SCF CALCULATION = 1162.33

          TIME FOR DERIVATIVES     =  360.49


    FIRST DERIVATIVES WILL BE USED IN THE CALCULATION OF SECOND DERIVATIVES

          ESTIMATED TIME TO COMPLETE CALCULATION =    63958.45 SECONDS
 STEP:   1 TIME =  1153.01 SECS, INTEGRAL =   1153.01 TIME LEFT: 602124.17
 STEP:   2 TIME =  1624.33 SECS, INTEGRAL =   2777.34 TIME LEFT: 600499.84
 STEP:   3 TIME =  1339.25 SECS, INTEGRAL =   4116.59 TIME LEFT: 599160.59
 STEP:   4 TIME =   906.95 SECS, INTEGRAL =   5023.54 TIME LEFT: 598253.64
 STEP:   5 TIME =  1452.62 SECS, INTEGRAL =   6476.17 TIME LEFT: 596801.01
 STEP:   6 RESTART FILE WRITTEN, INTEGRAL =   7969.56 TIME LEFT: 595307.62
 STEP:   7 TIME =   938.84 SECS, INTEGRAL =   8908.39 TIME LEFT: 594368.79
 STEP:   8 TIME =  1069.82 SECS, INTEGRAL =   9978.21 TIME LEFT: 593298.96
 STEP:   9 TIME =  1004.71 SECS, INTEGRAL =  10982.93 TIME LEFT: 592294.25
 STEP:  10 TIME =   941.30 SECS, INTEGRAL =  11924.22 TIME LEFT: 591352.96
 STEP:  11 TIME =   845.42 SECS, INTEGRAL =  12769.64 TIME LEFT: 590507.54
 STEP:  12 TIME =  1318.66 SECS, INTEGRAL =  14088.30 TIME LEFT: 589188.88
 STEP:  13 RESTART FILE WRITTEN, INTEGRAL =  15271.31 TIME LEFT: 588005.87
 STEP:  14 TIME =   766.05 SECS, INTEGRAL =  16037.36 TIME LEFT: 587239.82
 STEP:  15 TIME =  1018.05 SECS, INTEGRAL =  17055.42 TIME LEFT: 586221.76
 STEP:  16 TIME =   755.37 SECS, INTEGRAL =  17810.79 TIME LEFT: 585466.39
 STEP:  17 TIME =  1061.25 SECS, INTEGRAL =  18872.04 TIME LEFT: 584405.14
 STEP:  18 TIME =   881.43 SECS, INTEGRAL =  19753.46 TIME LEFT: 583523.71
 STEP:  19 TIME =   890.36 SECS, INTEGRAL =  20643.82 TIME LEFT: 582633.36
 STEP:  20 TIME =   717.45 SECS, INTEGRAL =  21361.27 TIME LEFT: 581915.91
 STEP:  21 RESTART FILE WRITTEN, INTEGRAL =  22851.10 TIME LEFT: 580426.08

          MOLECULAR WEIGHT =31867.17



          ROTATIONAL CONSTANTS IN CM(-1)

          A =    0.00000350   B =    0.00000292   C =    0.00000256



           PRINCIPAL MOMENTS OF INERTIA IN UNITS OF 10**(-40)*GRAM-CM**2

          A =  7990779.4233   B =  9599932.8101   C = 10922087.8900



          HEAT OF FORMATION =  -47757.237217 KCALS/MOLE

          ZERO POINT ENERGY      22.313 KCAL/MOL

         NOTE: SYSTEM IS NOT A GROUND STATE, THEREFORE ZERO POINT
         ENERGY IS NOT MEANINGFULL. ZERO POINT ENERGY PRINTED
         DOES NOT INCLUDE THE  1 IMAGINARY FREQUENCIES


                         Atoms used in the FORCETS calculation

   1     N(ATOM    761  NE2 HIS F  57)  29.34892668 +1   3.21466932 +1  34.40750543 +1
   2     O(ATOM   2739  OG  SER G 195)  27.05679188 +1   2.85659549 +1  35.43982218 +1
   3     C(ATOM   3487  C   TRP C 252)  26.39470920 +1   1.74046394 +1  36.59948022 +1
   4     N(ATOM   3509  N   THR C 253)  28.35324833 +1  -0.27173847 +1  34.24632825 +1
   5     O(HETATM 4596  O   HOH C 647)  26.92744724 +1   0.57498935 +1  36.15211433 +1
   6     H(ATOM   4597 1H   HOH C 647)  26.65814282 +1   0.31903377 +1  35.21234060 +1
   7     H(ATOM   4598 2H   HOH C 647)  28.27170120 +1   2.73530310 +1  35.08247621 +1


           NORMAL COORDINATE ANALYSIS (Total motion = 1 Angstrom)


   Root No.       1         2         3         4         5         6         7         8

                 1         2         3         4         5         6         7         8     

                -799.2     100.2     174.9     282.3     317.4     424.7     471.4     517.8
  
           1   -0.0147    0.0008    0.0001    0.0029   -0.0022    0.1678   -0.0514   -0.0188
           2   -0.0007    0.0011   -0.0009   -0.0003    0.0023    0.0895   -0.0203    0.0008
           3    0.0207    0.0005   -0.0039   -0.0083    0.0196    0.4673   -0.0564   -0.0280
           4   -0.0181    0.0006    0.0185    0.0463   -0.0793   -0.0791   -0.1688   -0.0504
           5   -0.0498    0.0664   -0.0976   -0.0763    0.1545   -0.0014   -0.1155    0.3197
           6   -0.0032   -0.0109   -0.0076   -0.0392    0.0681    0.0688    0.1810    0.0050
           7    0.0313   -0.0013   -0.0153   -0.0361    0.0315    0.0002    0.0329   -0.0228
           8    0.0684    0.0326   -0.0621   -0.0372    0.1592    0.0057    0.0995    0.0603
           9   -0.0685    0.0051    0.0389    0.1387   -0.0567   -0.0100   -0.1030    0.0098
          10    0.0067    0.0115    0.0070   -0.0225    0.0064   -0.0024   -0.0134   -0.0450
          11   -0.0014   -0.0045   -0.0003    0.0141   -0.0055    0.0023    0.0100    0.0273
          12   -0.0017   -0.0018    0.0018    0.0046   -0.0019    0.0016   -0.0025   -0.0062
          13   -0.0012    0.0849   -0.0051   -0.1132    0.1905   -0.0568   -0.0953   -0.2155
          14   -0.0089    0.1203   -0.1482   -0.1199    0.2180   -0.0437   -0.0494   -0.0388
          15    0.0004   -0.1000    0.2525    0.2508   -0.0588    0.0257    0.0299    0.0658
          16    0.0007    0.4142    0.3992   -0.0709    0.0145    0.0000    0.0014    0.0115
          17    0.0038    0.4325   -0.2002    0.2580    0.0279    0.0029    0.0127   -0.0154
          18    0.0043   -0.2917    0.2036    0.2117    0.1427   -0.0119   -0.0110   -0.0148
          19    0.6670    0.0127    0.0021    0.0405   -0.0948   -0.0230   -0.2429    0.1403
          20    0.0499    0.0396   -0.0286   -0.0263    0.0667    0.0782   -0.0001    0.2042
          21   -0.4351    0.0012   -0.0108   -0.0606    0.1263    0.2751    0.2600   -0.1107


   Root No.       9        10        11        12        13        14        15        16

                 9        10        11        12        13        14        15        16     

                 546.5     650.9     822.6     864.4     912.5     934.8     965.0    1083.4
  
           1   -0.0143   -0.0415   -0.0397   -0.0035   -0.0024    0.0043    0.0082   -0.0114
           2   -0.0024    0.0008    0.0045   -0.0010   -0.0060   -0.0051   -0.0135    0.3052
           3   -0.0145   -0.0082    0.0095    0.0009    0.0008    0.0005   -0.0056   -0.0634
           4   -0.0475   -0.1787   -0.1874   -0.0173    0.0239    0.0216    0.1936    0.0327
           5    0.0757    0.0798   -0.0932   -0.0090   -0.0133   -0.0046    0.0174   -0.0321
           6    0.0301    0.0799   -0.0345   -0.0058    0.0367    0.0393    0.3390    0.0056
           7   -0.0137    0.0049   -0.1124    0.0152    0.0232   -0.0007   -0.0071    0.0103
           8   -0.0054   -0.1800   -0.0296    0.0346    0.1890    0.0635   -0.0506    0.0030
           9    0.0143    0.0476    0.2258    0.0350    0.1759    0.0909    0.1306   -0.0059
          10    0.5729   -0.0105   -0.0090   -0.0280   -0.0387    0.3223   -0.0153    0.0018
          11   -0.2914    0.0051   -0.0058    0.3224   -0.1251    0.4631   -0.0081    0.0046
          12    0.1852   -0.0156    0.0020    0.6214   -0.0311   -0.2545    0.0192   -0.0009
          13   -0.0728    0.1843   -0.1078    0.0738    0.1363    0.0340   -0.0323   -0.0014
          14   -0.0482   -0.1282    0.1769    0.0423    0.0855    0.0366    0.0282    0.0135
          15    0.0130    0.0284   -0.0761    0.1119    0.3505    0.0982   -0.0771    0.0043
          16   -0.0070   -0.0142    0.0117   -0.0090   -0.0307   -0.0107    0.0072   -0.0008
          17    0.0092    0.0084   -0.0176   -0.0138   -0.0354   -0.0124   -0.0035   -0.0008
          18    0.0058   -0.0119    0.0090   -0.0371   -0.1053   -0.0312    0.0112   -0.0005
          19   -0.0044    0.1743    0.1112    0.0198    0.0328    0.0053    0.3159    0.0555
          20    0.0891    0.2017    0.0884   -0.0266   -0.0300   -0.0716   -0.0644    0.5857
          21    0.0314   -0.1236   -0.1913   -0.0268    0.0288   -0.0126   -0.0341    0.1581


   Root No.      17        18        19        20        21

                17        18        19        20        21     

                1105.7    1216.2    1279.9    1426.2    1511.8
  
           1    0.5108   -0.0154    0.0001   -0.0095   -0.0177
           2   -0.0471   -0.1049   -0.0131   -0.0231   -0.0425
           3   -0.1863    0.0067    0.0000    0.0177    0.0294
           4   -0.0898    0.0262   -0.0227    0.0002    0.0373
           5   -0.0220   -0.0212   -0.0012   -0.0067   -0.0188
           6    0.0289   -0.0264   -0.0713    0.0162    0.0209
           7   -0.0040   -0.0047    0.3428    0.2658   -0.0495
           8    0.0021   -0.0151    0.1700   -0.1722    0.0441
           9    0.0045   -0.0066    0.2538   -0.0527   -0.0017
          10   -0.0007    0.0008   -0.0070    0.0064   -0.0004
          11   -0.0017    0.0052    0.0024   -0.0032    0.0013
          12    0.0008   -0.0011    0.0085   -0.0076    0.0018
          13   -0.0006   -0.0038    0.0065   -0.0796    0.0176
          14    0.0069    0.0203   -0.1841    0.1714   -0.0314
          15    0.0023    0.0067   -0.1741    0.0901   -0.0147
          16   -0.0001   -0.0009    0.0117   -0.0010   -0.0002
          17   -0.0006   -0.0009   -0.0031    0.0009   -0.0001
          18   -0.0010   -0.0001    0.0160   -0.0021   -0.0000
          19    0.0574    0.2759   -0.0737   -0.2065   -0.4002
          20    0.2831    0.5718    0.1125    0.1777    0.4916
          21   -0.1804    0.4958    0.1010   -0.3044   -0.4731


           MASS-WEIGHTED COORDINATE ANALYSIS (NORMAL COORDINATES)


   Root No.       1         2         3         4         5         6         7         8

                 1         2         3         4         5         6         7         8     

                -799.2     100.2     174.9     282.3     317.4     424.7     471.4     517.8
  
           1   -0.0612    0.0008    0.0001    0.0048   -0.0051    0.3197   -0.1553   -0.0487
           2   -0.0029    0.0011   -0.0011   -0.0004    0.0055    0.1706   -0.0613    0.0021
           3    0.0859    0.0005   -0.0049   -0.0136    0.0460    0.8906   -0.1706   -0.0724
           4   -0.0696    0.0005    0.0214    0.0703   -0.1723   -0.1396   -0.4725   -0.1208
           5   -0.1915    0.0600   -0.1131   -0.1159    0.3357   -0.0025   -0.3232    0.7661
           6   -0.0123   -0.0099   -0.0088   -0.0595    0.1479    0.1215    0.5066    0.0121
           7    0.1205   -0.0012   -0.0177   -0.0548    0.0684    0.0004    0.0921   -0.0547
           8    0.2632    0.0295   -0.0720   -0.0564    0.3461    0.0100    0.2786    0.1446
           9   -0.2635    0.0046    0.0451    0.2106   -0.1233   -0.0177   -0.2882    0.0234
          10    0.0299    0.0120    0.0094   -0.0393    0.0160   -0.0050   -0.0433   -0.1244
          11   -0.0061   -0.0047   -0.0004    0.0246   -0.0139    0.0047    0.0324    0.0756
          12   -0.0077   -0.0019    0.0024    0.0081   -0.0048    0.0032   -0.0081   -0.0171
          13   -0.0045    0.0768   -0.0059   -0.1719    0.4141   -0.1002   -0.2669   -0.5165
          14   -0.0344    0.1088   -0.1717   -0.1820    0.4739   -0.0772   -0.1382   -0.0931
          15    0.0016   -0.0905    0.2926    0.3807   -0.1278    0.0454    0.0838    0.1576
          16    0.0042    0.6122    0.7559   -0.1760    0.0514    0.0001    0.0062    0.0449
          17    0.0236    0.6392   -0.3792    0.6401    0.0991    0.0083    0.0579   -0.0604
          18    0.0272   -0.4311    0.3855    0.5251    0.5069   -0.0344   -0.0503   -0.0580
          19    0.7432    0.0033    0.0007    0.0178   -0.0597   -0.0118   -0.1970    0.0974
          20    0.0556    0.0104   -0.0096   -0.0115    0.0420    0.0400   -0.0001    0.1418
          21   -0.4848    0.0003   -0.0036   -0.0266    0.0795    0.1406    0.2108   -0.0768


   Root No.       9        10        11        12        13        14        15        16

                 9        10        11        12        13        14        15        16     

                 546.5     650.9     822.6     864.4     912.5     934.8     965.0    1083.4
  
           1   -0.0197   -0.1192   -0.1050   -0.0045   -0.0050    0.0063    0.0204   -0.0320
           2   -0.0033    0.0024    0.0118   -0.0014   -0.0124   -0.0075   -0.0333    0.8593
           3   -0.0200   -0.0235    0.0252    0.0012    0.0016    0.0008   -0.0139   -0.1785
           4   -0.0606   -0.4751   -0.4593   -0.0210    0.0453    0.0294    0.4433    0.0852
           5    0.0966    0.2120   -0.2285   -0.0109   -0.0253   -0.0062    0.0399   -0.0837
           6    0.0384    0.2123   -0.0844   -0.0070    0.0697    0.0535    0.7762    0.0145
           7   -0.0174    0.0131   -0.2754    0.0185    0.0440   -0.0010   -0.0162    0.0267
           8   -0.0069   -0.4785   -0.0726    0.0419    0.3585    0.0863   -0.1159    0.0077
           9    0.0182    0.1266    0.5534    0.0424    0.3336    0.1237    0.2992   -0.0153
          10    0.8432   -0.0323   -0.0255   -0.0391   -0.0846    0.5060   -0.0406    0.0054
          11   -0.4290    0.0158   -0.0163    0.4508   -0.2738    0.7269   -0.0214    0.0138
          12    0.2727   -0.0478    0.0055    0.8689   -0.0680   -0.3995    0.0509   -0.0027
          13   -0.0929    0.4899   -0.2641    0.0894    0.2585    0.0462   -0.0739   -0.0037
          14   -0.0615   -0.3408    0.4335    0.0512    0.1622    0.0498    0.0645    0.0352
          15    0.0166    0.0754   -0.1866    0.1356    0.6649    0.1336   -0.1766    0.0113
          16   -0.0145   -0.0615    0.0469   -0.0178   -0.0950   -0.0237    0.0269   -0.0032
          17    0.0191    0.0364   -0.0705   -0.0272   -0.1096   -0.0276   -0.0131   -0.0033
          18    0.0121   -0.0518    0.0361   -0.0734   -0.3265   -0.0694    0.0420   -0.0022
          19   -0.0016    0.1342    0.0790    0.0070    0.0180    0.0021    0.2096    0.0419
          20    0.0329    0.1553    0.0627   -0.0093   -0.0165   -0.0282   -0.0427    0.4423
          21    0.0116   -0.0951   -0.1358   -0.0094    0.0158   -0.0050   -0.0226    0.1194


   Root No.      17        18        19        20        21

                17        18        19        20        21     

                1105.7    1216.2    1279.9    1426.2    1511.8
  
           1    0.9111   -0.0626    0.0002   -0.0254   -0.0755
           2   -0.0839   -0.4275   -0.0264   -0.0619   -0.1815
           3   -0.3322    0.0275    0.0001    0.0474    0.1256
           4   -0.1483    0.0988   -0.0426    0.0004    0.1473
           5   -0.0363   -0.0799   -0.0023   -0.0167   -0.0741
           6    0.0478   -0.0997   -0.1337    0.0401    0.0827
           7   -0.0066   -0.0178    0.6427    0.6594   -0.1954
           8    0.0035   -0.0568    0.3186   -0.4271    0.1740
           9    0.0075   -0.0250    0.4759   -0.1307   -0.0068
          10   -0.0014    0.0033   -0.0150    0.0184   -0.0019
          11   -0.0033    0.0225    0.0051   -0.0091    0.0061
          12    0.0015   -0.0048    0.0184   -0.0218    0.0083
          13   -0.0011   -0.0142    0.0123   -0.1975    0.0696
          14    0.0114    0.0765   -0.3452    0.4253   -0.1239
          15    0.0038    0.0252   -0.3264    0.2236   -0.0581
          16   -0.0004   -0.0054    0.0358   -0.0040   -0.0016
          17   -0.0016   -0.0054   -0.0094    0.0036   -0.0004
          18   -0.0027   -0.0005    0.0489   -0.0085   -0.0001
          19    0.0274    0.3015   -0.0400   -0.1484   -0.4579
          20    0.1354    0.6249    0.0611    0.1277    0.5626
          21   -0.0863    0.5419    0.0549   -0.2187   -0.5414

 **********************
 *                    *
 * JOB ENDED NORMALLY *
 *                    *
 **********************



 TOTAL JOB TIME:         24375.78 SECONDS

 == MOPAC DONE ==
