 *******************************************************************************
 ** Site#: 23746        For non-commercial use only           Version 21.065M **
 *******************************************************************************
 ** Cite this program as: MOPAC2016, Version: 21.065M, James J. P. Stewart,   **
 ** Stewart Computational Chemistry, web: HTTP://OpenMOPAC.net. Days left: 359**
 *******************************************************************************
 **                                                                           **
 **                                MOPAC2016                                  **
 **                                                                           **
 *******************************************************************************

                              PM7 CALCULATION RESULTS

 *******************************************************************************
 *  CALCULATION DONE:                                Fri Mar 12 16:29:51 2021  *
 *  GEO-OK     - OVERRIDE INTERATOMIC DISTANCE AND OTHER SAFETY CHECKS
 *  INVERT     - REVERSE ALL OPTIMIZATION FLAGS
 *  GEO_DAT    - DATA SET GEOMETRY IS IN FILE "Transition state 1-2.arc"
 *  MOZYME     - USE LOCALIZED M.O.s IN SOLVING THE SCF EQUATIONS
 *
 *
 *
 *                 CHARGE ON SYSTEM = -1
 *
 *
 *
 *  EPS=78.4   - USE ANDREAS KLAMT'S COSMO IMPLICIT SOLVATION MODEL
 *  FORCETS    - VERIFY THAT TRANSITION STATE IS GENUINE
 *  T=         - A TIME OF 1.0 WEEKS REQUESTED
 *  DUMP=N     - RESTART FILE WRITTEN EVERY 7200.0 SECONDS REQUESTED
 *  OUTPUT     - REDUCE OUTPUT, BUT PRINT:
 *           N - NORMAL COORDINATES
 *  ISOTOPE    - SAVE THE FORCE MATRIX FOR USE LATER
 *******************************************************************************
invert  EPS=78.4 geo-ok GEO_DAT="Transition state 1-2.arc" T=1W CHARGE=-1 MOZYME FORCETS output(N) isotope
 Verify that the Chymotrypsin Step 1-2 transition state is valid

 

 General Reference for PM7:
 "Optimization of Parameters for Semiempirical Methods VI: More Modifications to the 
 NDDO Approximations and Re-optimization of Parameters", J. J. P. Stewart, J. Mol. Mod., 1:32, 19 (2013)
 https://link.springer.com/article/10.1007/s00894-012-1667-x

           Empirical Formula: C1115 H2449 N302 O704 S16  =  4586 atoms


   Ion                PDB Label        Charge     Distance        PDB label for Salt Bridge   Charge
 
    1     (ATOM    144  N   SER E  11)   +1         2.49         (ATOM    214  OE2 GLU F  20)   -1
    2     (ATOM    148  N   ILE F  16)   +1         2.63         (ATOM   2727  OD2 ASP G 194)   -1
    3     (ATOM   2142  NH1 ARG G 154)   +1         2.57         (ATOM    228  OE1 GLU F  21)   -1
 

                 All other ions

    1     (ATOM   1445  OD2 ASP F 102)   -1

          COMPUTED CHARGE ON SYSTEM: -1, THIS IS THE SAME AS THE CHARGE DEFINED IN THE DATA-SET.


          HEAT OF FORMATION =  -47759.680613 KCALS/MOLE


          GRADIENT NORM =   7.71524


          TIME FOR SCF CALCULATION = 1100.66

          TIME FOR DERIVATIVES     =  435.50


    FIRST DERIVATIVES WILL BE USED IN THE CALCULATION OF SECOND DERIVATIVES

          ESTIMATED TIME TO COMPLETE CALCULATION =    36867.84 SECONDS
 STEP:   1 TIME =  1290.85 SECS, INTEGRAL =   1290.85 TIME LEFT: 601972.99
 STEP:   2 TIME =  1086.93 SECS, INTEGRAL =   2377.78 TIME LEFT: 600886.06
 STEP:   3 TIME =  1245.62 SECS, INTEGRAL =   3623.41 TIME LEFT: 599640.43
 STEP:   4 TIME =  1106.43 SECS, INTEGRAL =   4729.84 TIME LEFT: 598534.00
 STEP:   5 TIME =  1675.49 SECS, INTEGRAL =   6405.33 TIME LEFT: 596858.51
 STEP:   6 RESTART FILE WRITTEN, INTEGRAL =   8146.77 TIME LEFT: 595117.07
 STEP:   7 TIME =  1030.79 SECS, INTEGRAL =   9177.55 TIME LEFT: 594086.29
 STEP:   8 TIME =   782.84 SECS, INTEGRAL =   9960.39 TIME LEFT: 593303.45
 STEP:   9 TIME =  1237.12 SECS, INTEGRAL =  11197.52 TIME LEFT: 592066.32
 STEP:  10 TIME =  1357.95 SECS, INTEGRAL =  12555.47 TIME LEFT: 590708.37
 STEP:  11 TIME =  1020.91 SECS, INTEGRAL =  13576.38 TIME LEFT: 589687.46
 STEP:  12 TIME =  1230.68 SECS, INTEGRAL =  14807.06 TIME LEFT: 588456.78

          MOLECULAR WEIGHT =31867.17



          ROTATIONAL CONSTANTS IN CM(-1)

          A =    0.00000350   B =    0.00000292   C =    0.00000256



           PRINCIPAL MOMENTS OF INERTIA IN UNITS OF 10**(-40)*GRAM-CM**2

          A =  8006375.2899   B =  9598211.0004   C = 10916835.5069



          HEAT OF FORMATION =  -47759.627451 KCALS/MOLE

          ZERO POINT ENERGY      11.352 KCAL/MOL

         NOTE: SYSTEM IS NOT A GROUND STATE, THEREFORE ZERO POINT
         ENERGY IS NOT MEANINGFULL. ZERO POINT ENERGY PRINTED
         DOES NOT INCLUDE THE  1 IMAGINARY FREQUENCIES


                         Atoms used in the FORCETS calculation

   1     N(ATOM    760  NE2 HIS F  57)  29.77837729 +1   3.06107425 +1  34.38893927 +1
   2     O(ATOM   2737  OG  SER G 195)  27.40192758 +1   2.70617680 +1  35.29349909 +1
   3     H(ATOM   2742  HG  SER G 195)  28.57565418 +1   2.64939300 +1  34.96870867 +1
   4     C(ATOM   3485  C   TRP C 252)  26.97737478 +1   1.35579026 +1  36.21979109 +1


           NORMAL COORDINATE ANALYSIS (Total motion = 1 Angstrom)


   Root No.       1         2         3         4         5         6         7         8

                 1         2         3         4         5         6         7         8     

                -454.4     283.1     377.2     432.5     474.5     537.9     636.9     894.1
  
           1   -0.0414    0.0290   -0.0233    0.1824    0.0751   -0.0124    0.0589    0.0260
           2    0.0027    0.0257    0.0072    0.0628    0.0402   -0.0122    0.0023    0.0098
           3    0.0281    0.1321   -0.1000    0.3870    0.2494    0.0533   -0.0241   -0.0092
           4   -0.1497   -0.1420    0.0270    0.1628   -0.1476   -0.2207    0.4000    0.1542
           5   -0.0929    0.0686    0.2274    0.0688   -0.1030    0.5470    0.2369   -0.0897
           6    0.0550    0.1280   -0.0566   -0.1347    0.0818    0.2299   -0.1526    0.1660
           7    0.5691    0.1066    0.0212    0.1284   -0.2218   -0.0236    0.0341   -0.0039
           8   -0.0310    0.3453    0.4570   -0.0438    0.0904   -0.2438   -0.0022    0.0365
           9   -0.1943    0.4645   -0.2965   -0.0239   -0.2048   -0.0416    0.0487   -0.0175
          10    0.0136    0.0032   -0.0055   -0.0137    0.0172   -0.0210    0.0401   -0.0120
          11    0.1312    0.0568   -0.0877   -0.1589    0.1677    0.0385    0.2884    0.4324
          12   -0.0961   -0.0419    0.0758    0.1329   -0.1468    0.0446   -0.2558    0.5328


   Root No.       9        10        11        12

                 9        10        11        12     

                 950.1    1066.7    1130.8    1156.8
  
           1    0.0966    0.6342    0.2639    0.1019
           2    0.0040   -0.3593    0.6358    0.1346
           3   -0.0261   -0.1969   -0.2021   -0.0636
           4    0.2958   -0.1434   -0.0602   -0.1193
           5   -0.0668   -0.0128   -0.0047    0.0287
           6    0.5426   -0.0390    0.0129   -0.1170
           7    0.0309    0.0254    0.0110   -0.0059
           8    0.0233    0.0062   -0.0331   -0.0253
           9   -0.0581   -0.0025    0.0053    0.0178
          10    0.1169   -0.0663   -0.1839    0.6153
          11   -0.1530    0.0205    0.0074    0.0037
          12   -0.0800   -0.0039   -0.0233    0.0620


           MASS-WEIGHTED COORDINATE ANALYSIS (NORMAL COORDINATES)


   Root No.       1         2         3         4         5         6         7         8

                 1         2         3         4         5         6         7         8     

                -454.4     283.1     377.2     432.5     474.5     537.9     636.9     894.1
  
           1   -0.0677    0.0486   -0.0406    0.3359    0.1517   -0.0196    0.0950    0.0338
           2    0.0043    0.0431    0.0126    0.1156    0.0811   -0.0191    0.0038    0.0128
           3    0.0461    0.2211   -0.1744    0.7127    0.5037    0.0838   -0.0389   -0.0119
           4   -0.2270   -0.2201    0.0436    0.2776   -0.2759   -0.3214    0.5978    0.1858
           5   -0.1408    0.1063    0.3673    0.1173   -0.1925    0.7967    0.3540   -0.1081
           6    0.0833    0.1984   -0.0914   -0.2296    0.1530    0.3349   -0.2281    0.2000
           7    0.8628    0.1651    0.0343    0.2190   -0.4148   -0.0344    0.0510   -0.0047
           8   -0.0469    0.5352    0.7383   -0.0747    0.1691   -0.3551   -0.0033    0.0440
           9   -0.2945    0.7198   -0.4791   -0.0408   -0.3829   -0.0606    0.0728   -0.0211
          10    0.0239    0.0058   -0.0103   -0.0270    0.0372   -0.0353    0.0692   -0.0167
          11    0.2295    0.1016   -0.1635   -0.3128    0.3620    0.0647    0.4974    0.6010
          12   -0.1682   -0.0749    0.1413    0.2616   -0.3169    0.0749   -0.4412    0.7406


   Root No.       9        10        11        12

                 9        10        11        12     

                 950.1    1066.7    1130.8    1156.8
  
           1    0.1537    0.8220    0.3532    0.1449
           2    0.0064   -0.4657    0.8509    0.1914
           3   -0.0415   -0.2552   -0.2705   -0.0905
           4    0.4358   -0.1722   -0.0746   -0.1570
           5   -0.0984   -0.0154   -0.0059    0.0377
           6    0.7993   -0.0468    0.0160   -0.1539
           7    0.0455    0.0305    0.0137   -0.0078
           8    0.0343    0.0075   -0.0410   -0.0333
           9   -0.0856   -0.0030    0.0065    0.0235
          10    0.1987   -0.0918   -0.2630    0.9348
          11   -0.2600    0.0283    0.0105    0.0056
          12   -0.1360   -0.0054   -0.0334    0.0942

 **********************
 *                    *
 * JOB ENDED NORMALLY *
 *                    *
 **********************



 TOTAL JOB TIME:         16345.04 SECONDS

 == MOPAC DONE ==
