 *******************************************************************************
 ** Site#: 23746        For non-commercial use only           Version 21.065M **
 *******************************************************************************
 ** Cite this program as: MOPAC2016, Version: 21.065M, James J. P. Stewart,   **
 ** Stewart Computational Chemistry, web: HTTP://OpenMOPAC.net. Days left: 359**
 *******************************************************************************
 **                                                                           **
 **                                MOPAC2016                                  **
 **                                                                           **
 *******************************************************************************

                              PM7 CALCULATION RESULTS

 *******************************************************************************
 *  CALCULATION DONE:                                Fri Mar 12 16:30:06 2021  *
 *  GEO-OK     - OVERRIDE INTERATOMIC DISTANCE AND OTHER SAFETY CHECKS
 *  INVERT     - REVERSE ALL OPTIMIZATION FLAGS
 *  GEO_DAT    - DATA SET GEOMETRY IS IN FILE "Transition state 2-3.arc"
 *  MOZYME     - USE LOCALIZED M.O.s IN SOLVING THE SCF EQUATIONS
 *
 *
 *
 *                 CHARGE ON SYSTEM = -1
 *
 *
 *
 *  EPS=78.4   - USE ANDREAS KLAMT'S COSMO IMPLICIT SOLVATION MODEL
 *  FORCETS    - VERIFY THAT TRANSITION STATE IS GENUINE
 *  T=         - A TIME OF 1.0 WEEKS REQUESTED
 *  DUMP=N     - RESTART FILE WRITTEN EVERY 7200.0 SECONDS REQUESTED
 *  OUTPUT     - REDUCE OUTPUT, BUT PRINT:
 *           N - NORMAL COORDINATES
 *  ISOTOPE    - SAVE THE FORCE MATRIX FOR USE LATER
 *******************************************************************************
invert EPS=78.4 geo-ok GEO_DAT="Transition state 2-3.arc" T=1W CHARGE=-1 MOZYME FORCETS output(N) isotope
 Verify that the Chymotrypsin Step 2-3 transition state is valid

 

 General Reference for PM7:
 "Optimization of Parameters for Semiempirical Methods VI: More Modifications to the 
 NDDO Approximations and Re-optimization of Parameters", J. J. P. Stewart, J. Mol. Mod., 1:32, 19 (2013)
 https://link.springer.com/article/10.1007/s00894-012-1667-x

           Empirical Formula: C1115 H2449 N302 O704 S16  =  4586 atoms


   Ion                PDB Label        Charge     Distance        PDB label for Salt Bridge   Charge
 
    1     (ATOM    144  N   SER E  11)   +1         2.49         (ATOM    215  OE2 GLU F  20)   -1
    2     (ATOM    149  N   ILE F  16)   +1         2.62         (ATOM   2730  OD2 ASP G 194)   -1
    3     (ATOM    759  ND1 HIS F  57)   +1         2.64         (ATOM   1447  OD2 ASP F 102)   -1
    4     (ATOM   2145  NH1 ARG G 154)   +1         2.57         (ATOM    229  OE1 GLU F  21)   -1
 

                 All other ions

    1     (ATOM   3489  O   TRP C 252)   -1

          COMPUTED CHARGE ON SYSTEM: -1, THIS IS THE SAME AS THE CHARGE DEFINED IN THE DATA-SET.


          HEAT OF FORMATION =  -47760.852888 KCALS/MOLE


          GRADIENT NORM =  30.62983


          TIME FOR SCF CALCULATION =  912.45

          TIME FOR DERIVATIVES     =  536.52


    FIRST DERIVATIVES WILL BE USED IN THE CALCULATION OF SECOND DERIVATIVES

          ESTIMATED TIME TO COMPLETE CALCULATION =    26081.51 SECONDS
 STEP:   1 TIME =  1048.86 SECS, INTEGRAL =   1048.86 TIME LEFT: 602302.16
 STEP:   2 TIME =  1575.95 SECS, INTEGRAL =   2624.81 TIME LEFT: 600726.22
 STEP:   3 TIME =  1077.38 SECS, INTEGRAL =   3702.19 TIME LEFT: 599648.84
 STEP:   4 TIME =  1289.07 SECS, INTEGRAL =   4991.27 TIME LEFT: 598359.76
 STEP:   5 TIME =   942.20 SECS, INTEGRAL =   5933.46 TIME LEFT: 597417.57
 STEP:   6 RESTART FILE WRITTEN, INTEGRAL =   6968.98 TIME LEFT: 596382.05
 STEP:   7 TIME =  1642.62 SECS, INTEGRAL =   8611.60 TIME LEFT: 594739.43
 STEP:   8 TIME =  1227.58 SECS, INTEGRAL =   9839.18 TIME LEFT: 593511.85
 STEP:   9 TIME =  1426.71 SECS, INTEGRAL =  11265.89 TIME LEFT: 592085.14

          MOLECULAR WEIGHT =31867.17



          ROTATIONAL CONSTANTS IN CM(-1)

          A =    0.00000350   B =    0.00000292   C =    0.00000257



           PRINCIPAL MOMENTS OF INERTIA IN UNITS OF 10**(-40)*GRAM-CM**2

          A =  7999611.5385   B =  9596124.4577   C = 10911159.0641



          HEAT OF FORMATION =  -47760.790695 KCALS/MOLE

          ZERO POINT ENERGY       9.135 KCAL/MOL

         NOTE: SYSTEM IS NOT A GROUND STATE, THEREFORE ZERO POINT
         ENERGY IS NOT MEANINGFULL. ZERO POINT ENERGY PRINTED
         DOES NOT INCLUDE THE  1 IMAGINARY FREQUENCIES


                         Atoms used in the FORCETS calculation

   1     N(ATOM    761  NE2 HIS F  57)  29.66624905 +1   2.75355164 +1  34.16083361 +1
   2     H(ATOM    770  HG  SER G 195)  28.71112155 +1   1.78118439 +1  34.48101547 +1
   3     N(ATOM   3510  N   THR C 253)  27.97427551 +1   0.88003788 +1  35.29516716 +1


           NORMAL COORDINATE ANALYSIS (Total motion = 1 Angstrom)


   Root No.       1         2         3         4         5         6         7         8

                 1         2         3         4         5         6         7         8     

                -728.3     350.4     375.1     633.8     866.6     926.7    1050.0    1073.7
  
           1   -0.1441   -0.1287    0.1140   -0.0767    0.3061    0.2024    0.2182   -0.1207
           2   -0.1238    0.0238    0.0188    0.0074    0.1284    0.1723    0.2208   -0.0948
           3    0.0207   -0.3482    0.3587   -0.2238    0.0692   -0.0961   -0.2032    0.0830
           4    0.5328   -0.3543   -0.2709    0.0737    0.1188    0.0639    0.0530   -0.0039
           5    0.4538    0.4258    0.3051   -0.0535    0.1139    0.0906   -0.0098   -0.0284
           6    0.0784   -0.1903    0.3432    0.2963   -0.2978    0.0372    0.2319   -0.0960
           7   -0.0050   -0.0379   -0.0417   -0.1312   -0.2197    0.5848   -0.1646    0.0451
           8    0.0256    0.0187    0.0032   -0.1202   -0.0491   -0.0055    0.2647    0.6598
           9   -0.1013   -0.0000    0.0796    0.4169    0.2284    0.1360   -0.2358    0.2977


   Root No.       9

                 9     

                1113.4
  
           1   -0.4541
           2    0.7072
           3    0.1937
           4    0.0587
           5   -0.0036
           6   -0.0659
           7   -0.0308
           8   -0.0265
           9    0.0277


           MASS-WEIGHTED COORDINATE ANALYSIS (NORMAL COORDINATES)


   Root No.       1         2         3         4         5         6         7         8

                 1         2         3         4         5         6         7         8     

                -728.3     350.4     375.1     633.8     866.6     926.7    1050.0    1073.7
  
           1   -0.2099   -0.1954    0.1818   -0.1368    0.5567    0.3197    0.3874   -0.1724
           2   -0.1804    0.0361    0.0300    0.0132    0.2335    0.2721    0.3920   -0.1355
           3    0.0301   -0.5285    0.5724   -0.3990    0.1259   -0.1518   -0.3608    0.1186
           4    0.7188   -0.4979   -0.4003    0.1217    0.2000    0.0934    0.0871   -0.0051
           5    0.6121    0.5985    0.4508   -0.0884    0.1918    0.1325   -0.0162   -0.0375
           6    0.1058   -0.2675    0.5072    0.4891   -0.5014    0.0544    0.3812   -0.1270
           7   -0.0068   -0.0533   -0.0616   -0.2165   -0.3699    0.8554   -0.2706    0.0597
           8    0.0345    0.0263    0.0048   -0.1984   -0.0827   -0.0080    0.4351    0.8727
           9   -0.1367   -0.0000    0.1177    0.6883    0.3845    0.1989   -0.3877    0.3938


   Root No.       9

                 9     

                1113.4
  
           1   -0.5235
           2    0.8152
           3    0.2233
           4    0.0627
           5   -0.0039
           6   -0.0703
           7   -0.0329
           8   -0.0283
           9    0.0296

 **********************
 *                    *
 * JOB ENDED NORMALLY *
 *                    *
 **********************



 TOTAL JOB TIME:         12716.72 SECONDS

 == MOPAC DONE ==
