 *******************************************************************************
 ** Site#: 9602  E-mail support:    MrMOPAC@ATT.net    Version 18.050W 64BITS **
 *******************************************************************************
 ** Cite this program as: MOPAC2016, Version: 18.050W, James J. P. Stewart,   **
 ** Stewart Computational Chemistry, web: HTTP://OpenMOPAC.net. Days left: 177**
 *******************************************************************************
 **                                                                           **
 **                                MOPAC2016                                  **
 **                                                                           **
 *******************************************************************************

                              PM7 CALCULATION RESULTS


 *******************************************************************************
 *  CALCULATION DONE:                                Mon Feb 19 16:38:13 2018  *
 *  GEO_DAT    - DATA SET GEOMETRY IS IN FILE "ACETONE IN KETO FORM.ARC"
 *  GEO_REF    - REFERENCE GEOMETRY IS IN FILE "ACETONE IN ENOL FORM.ARC"
 *
 *
 *
 *                 CHARGE ON SYSTEM =    +1
 *
 *
 *
 *  EPS= 78.40 - USE ANDREAS KLAMT'S COSMO IMPLICIT SOLVATION MODEL
 *  XYZ        - CARTESIAN COORDINATE SYSTEM TO BE USED
 *  SADDLE     - TRANSITION STATE TO BE OPTIMIZED
 *  T=         - A TIME OF 172800.0 SECONDS REQUESTED
 *  DUMP=N     - RESTART FILE WRITTEN EVERY  7200.000 SECONDS
 *  BAR=       - REDUCE BAR LENGTH BY A MAX. OF   0.01
 *  HTML       - WRITE HTML SCRIPT TO READ PDB FILE USING JSMOL
 *******************************************************************************
geo_dat="Acetone in keto form.arc" +
geo_ref="Acetone in enol form.arc" +
saddle eps=78.4 html charge=1 xyz  bar=0.005
 Locating Keto-Enol transition state for acetone using SADDLE

   ATOM                 CHEMICAL                   X               Y               Z
  NUMBER                 SYMBOL               (ANGSTROMS)     (ANGSTROMS)     (ANGSTROMS)
 
     1       C(HETATM    1  C1  HET A   1)    2.81882417  *  -1.23261509  *  -1.05926308  *
     2       C(HETATM    2  C2  HET A   1)    2.47909660  *  -0.20695589  *  -0.06315227  *
     3       C(HETATM    3  C3  HET A   1)    2.94631390  *   1.18291236  *  -0.18568831  *
     4       O(HETATM    4  O   HET A   1)    1.76372402  *  -0.48864141  *   0.92927515  *
     5       O(HETATM    5  O   HOH B   2)    1.83414005  *   1.56252307  *   3.18463811  *
     6       H(HETATM    6 1H1  HET A   1)    3.78077732  *  -1.04742027  *  -1.57196524  *
     7       H(HETATM    7 2H1  HET A   1)    2.87015367  *  -2.25784609  *  -0.64640170  *
     8       H(HETATM    8 3H1  HET A   1)    2.05285399  *  -1.27616482  *  -1.86570000  *
     9       H(HETATM    9 1H3  HET A   1)    2.44748770  *   1.88236370  *   0.50947353  *
    10       H(HETATM   10 2H3  HET A   1)    2.80605080  *   1.58449751  *  -1.20883057  *
    11       H(HETATM   11 1H   HOH B   2)    1.77583056  *   0.83239902  *   2.55892116  *
    12       H(HETATM   12 2H   HOH B   2)    4.03570550  *   1.26110194  *   0.02013907  *
    13       H(HETATM   13 3H   HOH B   2)    2.28414707  *   1.17874462  *   3.94812951  *
    14       H(HETATM   14  H   HET A   1)    1.37681795  *  -1.68010684  *   1.05048452  *
    15       O(HETATM   15  O   HOH J   3)    1.03867116  *  -2.85740343  *   1.06995571  *
    16       H(HETATM   16 1H   HOH J   3)    0.06889894  *  -2.82006785  *   1.31648165  *
    17       H(HETATM   17 2H   HOH J   3)    1.45202388  *  -3.21729870  *   1.90910629  *
 

                        After docking

                     Atoms that move a lot

                     Atom Label             GEO_REF Coordinates       Movement    Integral

            (HETATM    9 1H3  HET A   1)   4.899  -0.676  -1.350        2.56         2.56
            (HETATM   12 2H   HOH B   2)   1.799   2.113   0.658        1.75         4.31
            (HETATM   13 3H   HOH B   2)   4.781  -1.850  -0.357        1.49         5.80
            (HETATM   10 2H3  HET A   1)   3.267   1.239   0.107        1.41         7.21
            (HETATM   16 1H   HOH J   3)   2.092  -3.663   0.166        1.12         8.33
            (HETATM   11 1H   HOH B   2)   3.166  -0.907  -0.669        1.10         9.44
            (HETATM    8 3H1  HET A   1)  -0.288  -0.799   0.700        0.90        10.34
            (HETATM    4  O   HET A   1)   2.037  -0.909  -0.786        0.85        11.19
            (HETATM   15  O   HOH J   3)   1.352  -3.019   0.329        0.81        12.00
            (HETATM   17 2H   HOH J   3)   0.621  -3.397  -0.230        0.78        12.78
            (HETATM    5  O   HOH B   2)   4.515  -0.905  -0.467        0.78        13.56
            (HETATM    7 2H1  HET A   1)  -0.462  -0.366  -1.009        0.78        14.34
            (HETATM    6 1H1  HET A   1)  -0.564   0.889   0.239        0.65        14.99
            (HETATM   14  H   HET A   1)   1.704  -1.934  -0.289        0.47        15.46
            (HETATM    2  C2  HET A   1)   1.428   0.183  -0.145        0.41        15.87
            (HETATM    3  C3  HET A   1)   2.192   1.208   0.217        0.37        16.24
            (HETATM    1  C1  HET A   1)  -0.026  -0.031  -0.050        0.26        16.49

   Difference between GEO_DAT and GEO_REF:  16.495 = total,  0.9703 = Average,  1.1203 = RMS, in Angstroms

    The rotated-translated input geometry will be written to: 'G:\work\Acetone in keto form.new'

 General Reference for PM7:
 "Optimization of Parameters for Semiempirical Methods VI: More Modifications to the 
 NDDO Approximations and Re-optimization of Parameters", J. J. P. Stewart, J. Mol. Mod., 1:32, 19 (2013)
 http://www.springerlink.com/openurl.asp?genre=article&id=doi:10.1007/s00894-012-1667-x

           Empirical Formula: C3 H11 O3  =    17 atoms



      MOLECULAR POINT GROUP   :   C1  


      RHF CALCULATION, NO. OF DOUBLY OCCUPIED LEVELS = 20



  CARTESIAN GEOMETRY OF FIRST SYSTEM


   1    C         -1.93828       0.72344       0.12252
   2    C         -0.48415       0.93718       0.02802
   3    C          0.27925       1.96237       0.38970
   4    O          0.12433      -0.15491      -0.61341
   5    O          2.60235      -0.15096      -0.29453
   6    H         -2.47671       1.64313       0.41156
   7    H         -2.37478       0.38870      -0.83665
   8    H         -2.20076      -0.04444       0.87309
   9    H          2.98626       0.07844      -1.17745
  10    H          1.35427       1.99318       0.27943
  11    H          1.25410      -0.15296      -0.49592
  12    H         -0.11373       2.86754       0.83050
  13    H          2.86881      -1.09544      -0.18437
  14    H         -0.20794      -1.17919      -0.11630
  15    O         -0.56047      -2.26437       0.50177
  16    H          0.17924      -2.90895       0.33878
  17    H         -1.29176      -2.64277      -0.05675


  CARTESIAN GEOMETRY OF SECOND SYSTEM


   1    C          0.17369      -0.00621       0.11098
   2    C          1.63820      -0.11091       0.04864
   3    C          2.50566       1.07744       0.06832
   4    O          2.19901      -1.23227      -0.01501
   5    O          5.12170      -1.15726      -0.88172
   6    H         -0.21929       0.93539      -0.31503
   7    H         -0.35622      -0.83241      -0.39967
   8    H         -0.18457      -0.03106       1.16453
   9    H          3.57423       0.84504       0.22785
  10    H          2.20868       1.80127       0.85294
  11    H          4.19810      -1.29929      -0.64761
  12    H          2.44671       1.63490      -0.89138
  13    H          5.20224      -1.55219      -1.75936
  14    H          1.46230      -2.25202      -0.05183
  15    O          0.66253      -3.17987      -0.06607
  16    H          1.06083      -3.84416       0.56851
  17    H          0.81601      -3.62218      -0.95228


   "DISTANCE":     9.679410


  REACTION COORDINATE VECTOR


   1    C         -2.11198       0.72965       0.01155
   2    C         -2.12235       1.04809      -0.02062
   3    C         -2.22641       0.88493       0.32139
   4    O         -2.07468       1.07737      -0.59840
   5    O         -2.51935       1.00630       0.58719
   6    H         -2.25742       0.70774       0.72659
   7    H         -2.01856       1.22111      -0.43698
   8    H         -2.01619      -0.01338      -0.29144
   9    H         -0.58796      -0.76659      -1.40529
  10    H         -0.85441       0.19191      -0.57351
  11    H         -2.94400       1.14633       0.15169
  12    H         -2.56044       1.23265       1.72188
  13    H         -2.33343       0.45675       1.57499
  14    H         -1.67024       1.07283      -0.06447
  15    O         -1.22300       0.91551       0.56785
  16    H         -0.88160       0.93521      -0.22973
  17    H         -2.10777       0.97941       0.89554
 *+*+*+*+*+*+*+*+*+*+*+*+*+*+*+*+*+*+*+*+*+*+*+*+*+*+*+*+*+*+*+*+*+*+*+*+*+*+*+*+
            BAR SHORTENED BY       0.000 PERCENT
 GRADIENT CRITERION IN FLEPO =     1.000


          FOR POINT    1 SECOND STRUCTURE
 DISTANCE A - B      9.679410
 HEAT              -72.708013
 GRADIENT NORM       0.416549
 DIRECTION COSINE    0.001140
 geo_ref="Acetone in enol form.arc" saddle eps=78.4 html charge=1 xyz bar=0.005
 Locating Keto-Enol transition state for acetone using SADDLE

  C(HETATM    1  C1  HET A   1)  -1.93828481 +1   0.72343894 +1   0.12252288 +1
  C(HETATM    2  C2  HET A   1)  -0.48415414 +1   0.93718230 +1   0.02802170 +1
  C(HETATM    3  C3  HET A   1)   0.27924686 +1   1.96237203 +1   0.38970479 +1
  O(HETATM    4  O   HET A   1)   0.12432619 +1  -0.15490681 +1  -0.61341453 +1
  O(HETATM    5  O   HOH B   2)   2.60234534 +1  -0.15096072 +1  -0.29452528 +1
  H(HETATM    6 1H1  HET A   1)  -2.47671144 +1   1.64312892 +1   0.41156216 +1
  H(HETATM    7 2H1  HET A   1)  -2.37477546 +1   0.38869702 +1  -0.83665337 +1
  H(HETATM    8 3H1  HET A   1)  -2.20076044 +1  -0.04444231 +1   0.87308599 +1
  H(HETATM    9 1H3  HET A   1)   2.98626496 +1   0.07844491 +1  -1.17744718 +1
  H(HETATM   10 2H3  HET A   1)   1.35426773 +1   1.99318319 +1   0.27943055 +1
  H(HETATM   11 1H   HOH B   2)   1.25409811 +1  -0.15296228 +1  -0.49592403 +1
  H(HETATM   12 2H   HOH B   2)  -0.11373379 +1   2.86754123 +1   0.83049978 +1
  H(HETATM   13 3H   HOH B   2)   2.86880981 +1  -1.09544208 +1  -0.18437320 +1
  H(HETATM   14  H   HET A   1)  -0.20794096 +1  -1.17918541 +1  -0.11629842 +1
  O(HETATM   15  O   HOH J   3)  -0.56047131 +1  -2.26436558 +1   0.50177046 +1
  H(HETATM   16 1H   HOH J   3)   0.17923569 +1  -2.90895451 +1   0.33878414 +1
  H(HETATM   17 2H   HOH J   3)  -1.29176227 +1  -2.64276884 +1  -0.05674649 +1
 
 TIME=     0.05
  REACTANTS AND PRODUCTS SWAPPED AROUND
 *+*+*+*+*+*+*+*+*+*+*+*+*+*+*+*+*+*+*+*+*+*+*+*+*+*+*+*+*+*+*+*+*+*+*+*+*+*+*+*+
            BAR SHORTENED BY       0.500 PERCENT
 GRADIENT CRITERION IN FLEPO =     1.000
           THERE HAVE BEEN 3 ATTEMPTS TO REDUCE THE GRADIENT.
           DURING THESE ATTEMPTS THE ENERGY DROPPED BY LESS THAN 0.3 KCAL/MOLE
           FURTHER CALCULATION IS NOT JUSTIFIED AT THIS TIME.
           TO CONTINUE, START AGAIN WITH THE WORD "PRECISE"


          FOR POINT    2 FIRST  STRUCTURE
 DISTANCE A - B      9.631013
 HEAT              -87.829089
 GRADIENT NORM       5.687744
 DIRECTION COSINE    0.074913
 geo_ref="Acetone in enol form.arc" saddle eps=78.4 html charge=1 xyz bar=0.005
 Locating Keto-Enol transition state for acetone using SADDLE

  C(HETATM    1  C1  HET A   1)   0.16137759 +1   0.00009802 +1   0.11318099 +1
  C(HETATM    2  C2  HET A   1)   1.62878700 +1  -0.10774034 +1   0.04812286 +1
  C(HETATM    3  C3  HET A   1)   2.49627572 +1   1.08410803 +1   0.07063965 +1
  O(HETATM    4  O   HET A   1)   2.19043015 +1  -1.22425371 +1  -0.02339551 +1
  O(HETATM    5  O   HOH B   2)   5.10618466 +1  -1.14805247 +1  -0.87808646 +1
  H(HETATM    6 1H1  HET A   1)  -0.22987613 +1   0.94078994 +1  -0.30986602 +1
  H(HETATM    7 2H1  HET A   1)  -0.36656878 +1  -0.82211391 +1  -0.40108856 +1
  H(HETATM    8 3H1  HET A   1)  -0.19607624 +1  -0.03815467 +1   1.16501874 +1
  H(HETATM    9 1H3  HET A   1)   3.56520328 +1   0.84712103 +1   0.22190661 +1
  H(HETATM   10 2H3  HET A   1)   2.20553123 +1   1.80289700 +1   0.85708999 +1
  H(HETATM   11 1H   HOH B   2)   4.18402721 +1  -1.29316052 +1  -0.63875805 +1
  H(HETATM   12 2H   HOH B   2)   2.43262157 +1   1.64368333 +1  -0.88609153 +1
  H(HETATM   13 3H   HOH B   2)   5.19017535 +1  -1.55187577 +1  -1.75058125 +1
  H(HETATM   14  H   HET A   1)   1.43477237 +1  -2.28740315 +1  -0.05180303 +1
  O(HETATM   15  O   HOH J   3)   0.65166724 +1  -3.17101839 +1  -0.05931997 +1
  H(HETATM   16 1H   HOH J   3)   1.06775623 +1  -3.83939925 +1   0.57076561 +1
  H(HETATM   17 2H   HOH J   3)   0.80759556 +1  -3.61558608 +1  -0.95031049 +1
 
 *+*+*+*+*+*+*+*+*+*+*+*+*+*+*+*+*+*+*+*+*+*+*+*+*+*+*+*+*+*+*+*+*+*+*+*+*+*+*+*+
            BAR SHORTENED BY       0.500 PERCENT
 GRADIENT CRITERION IN FLEPO =     2.688


          FOR POINT    3 FIRST  STRUCTURE
 DISTANCE A - B      9.582858
 HEAT              -87.818790
 GRADIENT NORM       7.497713
 DIRECTION COSINE    0.291896
 geo_ref="Acetone in enol form.arc" saddle eps=78.4 html charge=1 xyz bar=0.005
 Locating Keto-Enol transition state for acetone using SADDLE

  C(HETATM    1  C1  HET A   1)   0.15390075 +1   0.00194509 +1   0.11441184 +1
  C(HETATM    2  C2  HET A   1)   1.62044870 +1  -0.10377658 +1   0.04941248 +1
  C(HETATM    3  C3  HET A   1)   2.48982346 +1   1.08573606 +1   0.07001224 +1
  O(HETATM    4  O   HET A   1)   2.18069624 +1  -1.21921815 +1  -0.02582936 +1
  O(HETATM    5  O   HOH B   2)   5.09457888 +1  -1.14113552 +1  -0.87420993 +1
  H(HETATM    6 1H1  HET A   1)  -0.24001130 +1   0.94558308 +1  -0.30105045 +1
  H(HETATM    7 2H1  HET A   1)  -0.37593810 +1  -0.81793841 +1  -0.40423937 +1
  H(HETATM    8 3H1  HET A   1)  -0.20551030 +1  -0.03239467 +1   1.16737953 +1
  H(HETATM    9 1H3  HET A   1)   3.55934702 +1   0.85362758 +1   0.21527970 +1
  H(HETATM   10 2H3  HET A   1)   2.20015407 +1   1.80655070 +1   0.85853603 +1
  H(HETATM   11 1H   HOH B   2)   4.17187525 +1  -1.28707374 +1  -0.63296851 +1
  H(HETATM   12 2H   HOH B   2)   2.41949944 +1   1.65177695 +1  -0.88400031 +1
  H(HETATM   13 3H   HOH B   2)   5.15442205 +1  -1.55149498 +1  -1.74488065 +1
  H(HETATM   14  H   HET A   1)   1.42239704 +1  -2.27982140 +1  -0.05239565 +1
  O(HETATM   15  O   HOH J   3)   0.64759525 +1  -3.16753927 +1  -0.05576128 +1
  H(HETATM   16 1H   HOH J   3)   1.06245066 +1  -3.83968644 +1   0.57844341 +1
  H(HETATM   17 2H   HOH J   3)   0.79524101 +1  -3.61028698 +1  -0.94824294 +1
 
 *+*+*+*+*+*+*+*+*+*+*+*+*+*+*+*+*+*+*+*+*+*+*+*+*+*+*+*+*+*+*+*+*+*+*+*+*+*+*+*+
            BAR SHORTENED BY       0.500 PERCENT
 GRADIENT CRITERION IN FLEPO =     4.498


          FOR POINT    4 FIRST  STRUCTURE
 DISTANCE A - B      9.534944
 HEAT              -87.802953
 GRADIENT NORM       6.309576
 DIRECTION COSINE    0.212780
 geo_ref="Acetone in enol form.arc" saddle eps=78.4 html charge=1 xyz bar=0.005
 Locating Keto-Enol transition state for acetone using SADDLE

  C(HETATM    1  C1  HET A   1)   0.14561692 +1   0.00717768 +1   0.11633280 +1
  C(HETATM    2  C2  HET A   1)   1.61214564 +1  -0.10054033 +1   0.04742137 +1
  C(HETATM    3  C3  HET A   1)   2.48121399 +1   1.08809735 +1   0.06883564 +1
  O(HETATM    4  O   HET A   1)   2.16899818 +1  -1.21726601 +1  -0.03089920 +1
  O(HETATM    5  O   HOH B   2)   5.07942679 +1  -1.13451814 +1  -0.86953732 +1
  H(HETATM    6 1H1  HET A   1)  -0.25261809 +1   0.95089584 +1  -0.29959069 +1
  H(HETATM    7 2H1  HET A   1)  -0.38734550 +1  -0.81393082 +1  -0.40813709 +1
  H(HETATM    8 3H1  HET A   1)  -0.21690794 +1  -0.03434617 +1   1.16780568 +1
  H(HETATM    9 1H3  HET A   1)   3.55438541 +1   0.85197549 +1   0.20663103 +1
  H(HETATM   10 2H3  HET A   1)   2.19410060 +1   1.80937859 +1   0.85786148 +1
  H(HETATM   11 1H   HOH B   2)   4.15602590 +1  -1.27936531 +1  -0.62989763 +1
  H(HETATM   12 2H   HOH B   2)   2.40533113 +1   1.65961416 +1  -0.87811587 +1
  H(HETATM   13 3H   HOH B   2)   5.14614751 +1  -1.55126303 +1  -1.73934316 +1
  H(HETATM   14  H   HET A   1)   1.41636578 +1  -2.27248017 +1  -0.05086904 +1
  O(HETATM   15  O   HOH J   3)   0.63965834 +1  -3.16531179 +1  -0.05115432 +1
  H(HETATM   16 1H   HOH J   3)   1.05616206 +1  -3.83321771 +1   0.57528937 +1
  H(HETATM   17 2H   HOH J   3)   0.78304943 +1  -3.60745620 +1  -0.94576906 +1
 
 TIME=     0.53
  REACTANTS AND PRODUCTS SWAPPED AROUND
 *+*+*+*+*+*+*+*+*+*+*+*+*+*+*+*+*+*+*+*+*+*+*+*+*+*+*+*+*+*+*+*+*+*+*+*+*+*+*+*+
            BAR SHORTENED BY       0.000 PERCENT
 GRADIENT CRITERION IN FLEPO =     3.310


          FOR POINT    5 SECOND STRUCTURE
 DISTANCE A - B      9.534944
 HEAT              -72.708013
 GRADIENT NORM       0.416590
 DIRECTION COSINE   -0.050779
 geo_ref="Acetone in enol form.arc" saddle eps=78.4 html charge=1 xyz bar=0.005
 Locating Keto-Enol transition state for acetone using SADDLE

  C(HETATM    1  C1  HET A   1)  -1.93828481 +1   0.72343894 +1   0.12252288 +1
  C(HETATM    2  C2  HET A   1)  -0.48415414 +1   0.93718230 +1   0.02802170 +1
  C(HETATM    3  C3  HET A   1)   0.27924686 +1   1.96237203 +1   0.38970479 +1
  O(HETATM    4  O   HET A   1)   0.12432619 +1  -0.15490681 +1  -0.61341453 +1
  O(HETATM    5  O   HOH B   2)   2.60234534 +1  -0.15096072 +1  -0.29452528 +1
  H(HETATM    6 1H1  HET A   1)  -2.47671144 +1   1.64312892 +1   0.41156216 +1
  H(HETATM    7 2H1  HET A   1)  -2.37477546 +1   0.38869702 +1  -0.83665337 +1
  H(HETATM    8 3H1  HET A   1)  -2.20076044 +1  -0.04444231 +1   0.87308599 +1
  H(HETATM    9 1H3  HET A   1)   2.98626496 +1   0.07844491 +1  -1.17744718 +1
  H(HETATM   10 2H3  HET A   1)   1.35426773 +1   1.99318319 +1   0.27943055 +1
  H(HETATM   11 1H   HOH B   2)   1.25409811 +1  -0.15296228 +1  -0.49592403 +1
  H(HETATM   12 2H   HOH B   2)  -0.11373379 +1   2.86754123 +1   0.83049978 +1
  H(HETATM   13 3H   HOH B   2)   2.86880981 +1  -1.09544208 +1  -0.18437320 +1
  H(HETATM   14  H   HET A   1)  -0.20794096 +1  -1.17918541 +1  -0.11629842 +1
  O(HETATM   15  O   HOH J   3)  -0.56047131 +1  -2.26436558 +1   0.50177046 +1
  H(HETATM   16 1H   HOH J   3)   0.17923569 +1  -2.90895451 +1   0.33878414 +1
  H(HETATM   17 2H   HOH J   3)  -1.29176227 +1  -2.64276884 +1  -0.05674649 +1
 
 TIME=     0.03
  REACTANTS AND PRODUCTS SWAPPED AROUND
 *+*+*+*+*+*+*+*+*+*+*+*+*+*+*+*+*+*+*+*+*+*+*+*+*+*+*+*+*+*+*+*+*+*+*+*+*+*+*+*+
            BAR SHORTENED BY       0.500 PERCENT
 GRADIENT CRITERION IN FLEPO =     3.310


          FOR POINT    6 FIRST  STRUCTURE
 DISTANCE A - B      9.487269
 HEAT              -87.765813
 GRADIENT NORM       6.578628
 DIRECTION COSINE   -0.100367
 geo_ref="Acetone in enol form.arc" saddle eps=78.4 html charge=1 xyz bar=0.005
 Locating Keto-Enol transition state for acetone using SADDLE

  C(HETATM    1  C1  HET A   1)   0.13504430 +1   0.01123964 +1   0.11641704 +1
  C(HETATM    2  C2  HET A   1)   1.60152588 +1  -0.09546028 +1   0.04660523 +1
  C(HETATM    3  C3  HET A   1)   2.47312538 +1   1.09271479 +1   0.06739294 +1
  O(HETATM    4  O   HET A   1)   2.15854287 +1  -1.21209460 +1  -0.03433852 +1
  O(HETATM    5  O   HOH B   2)   5.06360362 +1  -1.12907476 +1  -0.86671524 +1
  H(HETATM    6 1H1  HET A   1)  -0.26558192 +1   0.95159794 +1  -0.29268842 +1
  H(HETATM    7 2H1  HET A   1)  -0.39636590 +1  -0.80675456 +1  -0.40974892 +1
  H(HETATM    8 3H1  HET A   1)  -0.23055953 +1  -0.03450495 +1   1.16715552 +1
  H(HETATM    9 1H3  HET A   1)   3.54307788 +1   0.85486543 +1   0.19961782 +1
  H(HETATM   10 2H3  HET A   1)   2.18957785 +1   1.81155543 +1   0.86137440 +1
  H(HETATM   11 1H   HOH B   2)   4.14341336 +1  -1.27161249 +1  -0.61646253 +1
  H(HETATM   12 2H   HOH B   2)   2.39323671 +1   1.66686752 +1  -0.88001480 +1
  H(HETATM   13 3H   HOH B   2)   5.14021077 +1  -1.54947558 +1  -1.73138755 +1
  H(HETATM   14  H   HET A   1)   1.40371505 +1  -2.26165166 +1  -0.04551081 +1
  O(HETATM   15  O   HOH J   3)   0.63070122 +1  -3.16003339 +1  -0.04794207 +1
  H(HETATM   16 1H   HOH J   3)   1.05093190 +1  -3.82846572 +1   0.57477780 +1
  H(HETATM   17 2H   HOH J   3)   0.77079165 +1  -3.60322132 +1  -0.94194330 +1
 
 TIME=     0.11
  REACTANTS AND PRODUCTS SWAPPED AROUND
 *+*+*+*+*+*+*+*+*+*+*+*+*+*+*+*+*+*+*+*+*+*+*+*+*+*+*+*+*+*+*+*+*+*+*+*+*+*+*+*+
            BAR SHORTENED BY       0.500 PERCENT
 GRADIENT CRITERION IN FLEPO =     3.579


          FOR POINT    7 SECOND STRUCTURE
 DISTANCE A - B      9.439833
 HEAT              -72.710487
 GRADIENT NORM       7.105511
 DIRECTION COSINE    0.065130
 geo_ref="Acetone in enol form.arc" saddle eps=78.4 html charge=1 xyz bar=0.005
 Locating Keto-Enol transition state for acetone using SADDLE

  C(HETATM    1  C1  HET A   1)  -1.92665859 +1   0.72000001 +1   0.12252679 +1
  C(HETATM    2  C2  HET A   1)  -0.47365758 +1   0.93219933 +1   0.02814198 +1
  C(HETATM    3  C3  HET A   1)   0.28919050 +1   1.95770371 +1   0.38771903 +1
  O(HETATM    4  O   HET A   1)   0.13547281 +1  -0.16006764 +1  -0.61102672 +1
  O(HETATM    5  O   HOH B   2)   2.61222115 +1  -0.15532805 +1  -0.29350932 +1
  H(HETATM    6 1H1  HET A   1)  -2.46529574 +1   1.64363522 +1   0.40777497 +1
  H(HETATM    7 2H1  HET A   1)  -2.35965398 +1   0.38183225 +1  -0.83500390 +1
  H(HETATM    8 3H1  HET A   1)  -2.18426094 +1  -0.04514247 +1   0.87551865 +1
  H(HETATM    9 1H3  HET A   1)   2.99237305 +1   0.08593824 +1  -1.17440443 +1
  H(HETATM   10 2H3  HET A   1)   1.36212024 +1   1.99013696 +1   0.27514220 +1
  H(HETATM   11 1H   HOH B   2)   1.25677630 +1  -0.16069542 +1  -0.49479151 +1
  H(HETATM   12 2H   HOH B   2)  -0.10412399 +1   2.86388395 +1   0.82408785 +1
  H(HETATM   13 3H   HOH B   2)   2.88172279 +1  -1.09932061 +1  -0.19489606 +1
  H(HETATM   14  H   HET A   1)  -0.19750534 +1  -1.18509202 +1  -0.11711877 +1
  O(HETATM   15  O   HOH J   3)  -0.55460452 +1  -2.27247016 +1   0.50003907 +1
  H(HETATM   16 1H   HOH J   3)   0.18692777 +1  -2.92728402 +1   0.34143088 +1
  H(HETATM   17 2H   HOH J   3)  -1.28237182 +1  -2.64843667 +1  -0.06204029 +1
 
 TIME=     0.06
  REACTANTS AND PRODUCTS SWAPPED AROUND
 *+*+*+*+*+*+*+*+*+*+*+*+*+*+*+*+*+*+*+*+*+*+*+*+*+*+*+*+*+*+*+*+*+*+*+*+*+*+*+*+
            BAR SHORTENED BY       0.500 PERCENT
 GRADIENT CRITERION IN FLEPO =     4.106
 

                    SINCE COS WAS JUST RESET,THE SEARCH IS BEING ENDED


          FOR POINT    8 FIRST  STRUCTURE
 DISTANCE A - B      9.392634
 HEAT              -87.723561
 GRADIENT NORM      10.715716
 DIRECTION COSINE   -0.017380
 geo_ref="Acetone in enol form.arc" saddle eps=78.4 html charge=1 xyz bar=0.005
 Locating Keto-Enol transition state for acetone using SADDLE

  C(HETATM    1  C1  HET A   1)   0.12284557 +1   0.01275900 +1   0.11843739 +1
  C(HETATM    2  C2  HET A   1)   1.58926041 +1  -0.08838167 +1   0.04850391 +1
  C(HETATM    3  C3  HET A   1)   2.46430161 +1   1.09500773 +1   0.06698895 +1
  O(HETATM    4  O   HET A   1)   2.15051563 +1  -1.20887553 +1  -0.03520393 +1
  O(HETATM    5  O   HOH B   2)   5.04947538 +1  -1.12226310 +1  -0.86188688 +1
  H(HETATM    6 1H1  HET A   1)  -0.27846401 +1   0.95701469 +1  -0.29121013 +1
  H(HETATM    7 2H1  HET A   1)  -0.40409712 +1  -0.79887911 +1  -0.40986450 +1
  H(HETATM    8 3H1  HET A   1)  -0.23824328 +1  -0.03256753 +1   1.16770156 +1
  H(HETATM    9 1H3  HET A   1)   3.53836094 +1   0.85304814 +1   0.19480438 +1
  H(HETATM   10 2H3  HET A   1)   2.18349056 +1   1.81442978 +1   0.86046174 +1
  H(HETATM   11 1H   HOH B   2)   4.13111013 +1  -1.26412163 +1  -0.61386997 +1
  H(HETATM   12 2H   HOH B   2)   2.37888081 +1   1.67478470 +1  -0.87356694 +1
  H(HETATM   13 3H   HOH B   2)   5.12703766 +1  -1.54923671 +1  -1.72576963 +1
  H(HETATM   14  H   HET A   1)   1.39379643 +1  -2.25433092 +1  -0.04785548 +1
  O(HETATM   15  O   HOH J   3)   0.62284202 +1  -3.15762867 +1  -0.04721881 +1
  H(HETATM   16 1H   HOH J   3)   1.04864384 +1  -3.82599357 +1   0.57561247 +1
  H(HETATM   17 2H   HOH J   3)   0.75863521 +1  -3.59650356 +1  -0.93957651 +1
 
 TIME=     0.09
  REACTANTS AND PRODUCTS SWAPPED AROUND
 *+*+*+*+*+*+*+*+*+*+*+*+*+*+*+*+*+*+*+*+*+*+*+*+*+*+*+*+*+*+*+*+*+*+*+*+*+*+*+*+
            BAR SHORTENED BY       0.500 PERCENT
 GRADIENT CRITERION IN FLEPO =     7.716


          FOR POINT    9 SECOND STRUCTURE
 DISTANCE A - B      9.345670
 HEAT              -72.725598
 GRADIENT NORM       3.897181
 DIRECTION COSINE   -0.277867
 geo_ref="Acetone in enol form.arc" saddle eps=78.4 html charge=1 xyz bar=0.005
 Locating Keto-Enol transition state for acetone using SADDLE

  C(HETATM    1  C1  HET A   1)  -1.91580024 +1   0.71698395 +1   0.12283167 +1
  C(HETATM    2  C2  HET A   1)  -0.46316088 +1   0.92739915 +1   0.02835093 +1
  C(HETATM    3  C3  HET A   1)   0.29905238 +1   1.95320218 +1   0.38561828 +1
  O(HETATM    4  O   HET A   1)   0.14544581 +1  -0.16757158 +1  -0.60957643 +1
  O(HETATM    5  O   HOH B   2)   2.62212051 +1  -0.16000878 +1  -0.29239470 +1
  H(HETATM    6 1H1  HET A   1)  -2.45382694 +1   1.63922931 +1   0.40327921 +1
  H(HETATM    7 2H1  HET A   1)  -2.35106944 +1   0.37455103 +1  -0.83393181 +1
  H(HETATM    8 3H1  HET A   1)  -2.17715401 +1  -0.04650453 +1   0.87838728 +1
  H(HETATM    9 1H3  HET A   1)   2.99863857 +1   0.09355849 +1  -1.17153927 +1
  H(HETATM   10 2H3  HET A   1)   1.37113845 +1   1.98657952 +1   0.27272349 +1
  H(HETATM   11 1H   HOH B   2)   1.27464999 +1  -0.16654220 +1  -0.49134895 +1
  H(HETATM   12 2H   HOH B   2)  -0.09486914 +1   2.86078703 +1   0.81877835 +1
  H(HETATM   13 3H   HOH B   2)   2.89495540 +1  -1.10339612 +1  -0.20507031 +1
  H(HETATM   14  H   HET A   1)  -0.18580578 +1  -1.19221671 +1  -0.11501758 +1
  O(HETATM   15  O   HOH J   3)  -0.54726062 +1  -2.27926604 +1   0.49807947 +1
  H(HETATM   16 1H   HOH J   3)   0.18945282 +1  -2.92946146 +1   0.34486419 +1
  H(HETATM   17 2H   HOH J   3)  -1.27357745 +1  -2.65442817 +1  -0.06777172 +1
 
 TIME=     0.06
  REACTANTS AND PRODUCTS SWAPPED AROUND
 *+*+*+*+*+*+*+*+*+*+*+*+*+*+*+*+*+*+*+*+*+*+*+*+*+*+*+*+*+*+*+*+*+*+*+*+*+*+*+*+
            BAR SHORTENED BY       0.500 PERCENT
 GRADIENT CRITERION IN FLEPO =     7.716


          FOR POINT   10 FIRST  STRUCTURE
 DISTANCE A - B      9.298942
 HEAT              -87.775265
 GRADIENT NORM      11.560919
 DIRECTION COSINE   -0.133151
 geo_ref="Acetone in enol form.arc" saddle eps=78.4 html charge=1 xyz bar=0.005
 Locating Keto-Enol transition state for acetone using SADDLE

  C(HETATM    1  C1  HET A   1)   0.11347663 +1   0.01701968 +1   0.11756834 +1
  C(HETATM    2  C2  HET A   1)   1.57977002 +1  -0.08427497 +1   0.04914453 +1
  C(HETATM    3  C3  HET A   1)   2.45794996 +1   1.09918735 +1   0.06762331 +1
  O(HETATM    4  O   HET A   1)   2.13897977 +1  -1.20318946 +1  -0.03746214 +1
  O(HETATM    5  O   HOH B   2)   5.03699332 +1  -1.11606172 +1  -0.85952110 +1
  H(HETATM    6 1H1  HET A   1)  -0.28502180 +1   0.97009508 +1  -0.28632967 +1
  H(HETATM    7 2H1  HET A   1)  -0.41394266 +1  -0.79416954 +1  -0.41206929 +1
  H(HETATM    8 3H1  HET A   1)  -0.24652810 +1  -0.03088631 +1   1.17150020 +1
  H(HETATM    9 1H3  HET A   1)   3.52765250 +1   0.85826414 +1   0.18919654 +1
  H(HETATM   10 2H3  HET A   1)   2.18250284 +1   1.81790972 +1   0.87164840 +1
  H(HETATM   11 1H   HOH B   2)   4.11134618 +1  -1.25866271 +1  -0.60744958 +1
  H(HETATM   12 2H   HOH B   2)   2.36792945 +1   1.68290430 +1  -0.87010395 +1
  H(HETATM   13 3H   HOH B   2)   5.11263145 +1  -1.54641013 +1  -1.71665348 +1
  H(HETATM   14  H   HET A   1)   1.38460859 +1  -2.24962968 +1  -0.05183357 +1
  O(HETATM   15  O   HOH J   3)   0.61405555 +1  -3.15245934 +1  -0.04300116 +1
  H(HETATM   16 1H   HOH J   3)   1.04283916 +1  -3.82110322 +1   0.57816664 +1
  H(HETATM   17 2H   HOH J   3)   0.74392222 +1  -3.59316470 +1  -0.93664194 +1
 
 TIME=     0.08
  REACTANTS AND PRODUCTS SWAPPED AROUND
 *+*+*+*+*+*+*+*+*+*+*+*+*+*+*+*+*+*+*+*+*+*+*+*+*+*+*+*+*+*+*+*+*+*+*+*+*+*+*+*+
            BAR SHORTENED BY       0.500 PERCENT
 GRADIENT CRITERION IN FLEPO =     8.561


          FOR POINT   11 SECOND STRUCTURE
 DISTANCE A - B      9.252447
 HEAT              -72.696366
 GRADIENT NORM       6.199405
 DIRECTION COSINE   -0.067820
 geo_ref="Acetone in enol form.arc" saddle eps=78.4 html charge=1 xyz bar=0.005
 Locating Keto-Enol transition state for acetone using SADDLE

  C(HETATM    1  C1  HET A   1)  -1.90455641 +1   0.71117195 +1   0.12448368 +1
  C(HETATM    2  C2  HET A   1)  -0.45174145 +1   0.91731130 +1   0.02558295 +1
  C(HETATM    3  C3  HET A   1)   0.30738506 +1   1.94747248 +1   0.38229587 +1
  O(HETATM    4  O   HET A   1)   0.15675714 +1  -0.17511199 +1  -0.60904025 +1
  O(HETATM    5  O   HOH B   2)   2.63146996 +1  -0.16267779 +1  -0.29280837 +1
  H(HETATM    6 1H1  HET A   1)  -2.44115260 +1   1.63780460 +1   0.40171942 +1
  H(HETATM    7 2H1  HET A   1)  -2.33899998 +1   0.36707827 +1  -0.83373200 +1
  H(HETATM    8 3H1  HET A   1)  -2.16975971 +1  -0.04835874 +1   0.88170952 +1
  H(HETATM    9 1H3  HET A   1)   3.00335907 +1   0.09936335 +1  -1.16740300 +1
  H(HETATM   10 2H3  HET A   1)   1.37738361 +1   1.98347149 +1   0.27176920 +1
  H(HETATM   11 1H   HOH B   2)   1.28609078 +1  -0.17359047 +1  -0.49000268 +1
  H(HETATM   12 2H   HOH B   2)  -0.08553843 +1   2.85721782 +1   0.81286009 +1
  H(HETATM   13 3H   HOH B   2)   2.90748872 +1  -1.10752224 +1  -0.21440666 +1
  H(HETATM   14  H   HET A   1)  -0.17652913 +1  -1.19932520 +1  -0.11293885 +1
  O(HETATM   15  O   HOH J   3)  -0.54006837 +1  -2.28556545 +1   0.49738757 +1
  H(HETATM   16 1H   HOH J   3)   0.19586973 +1  -2.93786262 +1   0.34783287 +1
  H(HETATM   17 2H   HOH J   3)  -1.26586706 +1  -2.66069456 +1  -0.07374275 +1
 
 TIME=     0.06
  REACTANTS AND PRODUCTS SWAPPED AROUND
 *+*+*+*+*+*+*+*+*+*+*+*+*+*+*+*+*+*+*+*+*+*+*+*+*+*+*+*+*+*+*+*+*+*+*+*+*+*+*+*+
            BAR SHORTENED BY       0.500 PERCENT
 GRADIENT CRITERION IN FLEPO =     3.199


          FOR POINT   12 FIRST  STRUCTURE
 DISTANCE A - B      9.206185
 HEAT              -87.812385
 GRADIENT NORM       4.169704
 DIRECTION COSINE   -0.040436
 geo_ref="Acetone in enol form.arc" saddle eps=78.4 html charge=1 xyz bar=0.005
 Locating Keto-Enol transition state for acetone using SADDLE

  C(HETATM    1  C1  HET A   1)   0.10349146 +1   0.02269299 +1   0.11899071 +1
  C(HETATM    2  C2  HET A   1)   1.57019852 +1  -0.07959168 +1   0.04743236 +1
  C(HETATM    3  C3  HET A   1)   2.44698348 +1   1.10402524 +1   0.07142796 +1
  O(HETATM    4  O   HET A   1)   2.12752065 +1  -1.19702578 +1  -0.03986440 +1
  O(HETATM    5  O   HOH B   2)   5.02035000 +1  -1.10836679 +1  -0.85408670 +1
  H(HETATM    6 1H1  HET A   1)  -0.29226039 +1   0.97202140 +1  -0.28177748 +1
  H(HETATM    7 2H1  HET A   1)  -0.42568780 +1  -0.78971539 +1  -0.41620532 +1
  H(HETATM    8 3H1  HET A   1)  -0.25757677 +1  -0.03488087 +1   1.16859562 +1
  H(HETATM    9 1H3  HET A   1)   3.52065230 +1   0.86034967 +1   0.18100114 +1
  H(HETATM   10 2H3  HET A   1)   2.17930215 +1   1.81118494 +1   0.88256098 +1
  H(HETATM   11 1H   HOH B   2)   4.10016510 +1  -1.25109604 +1  -0.60942169 +1
  H(HETATM   12 2H   HOH B   2)   2.35406332 +1   1.69162436 +1  -0.86516303 +1
  H(HETATM   13 3H   HOH B   2)   5.10578911 +1  -1.54701679 +1  -1.71099460 +1
  H(HETATM   14  H   HET A   1)   1.37640719 +1  -2.24407895 +1  -0.05244098 +1
  O(HETATM   15  O   HOH J   3)   0.60328061 +1  -3.14913642 +1  -0.03904548 +1
  H(HETATM   16 1H   HOH J   3)   1.03735011 +1  -3.81540732 +1   0.57674662 +1
  H(HETATM   17 2H   HOH J   3)   0.73268167 +1  -3.58925599 +1  -0.93363793 +1
 
 TIME=     0.08
  REACTANTS AND PRODUCTS SWAPPED AROUND
 *+*+*+*+*+*+*+*+*+*+*+*+*+*+*+*+*+*+*+*+*+*+*+*+*+*+*+*+*+*+*+*+*+*+*+*+*+*+*+*+
            BAR SHORTENED BY       0.500 PERCENT
 GRADIENT CRITERION IN FLEPO =     1.170
           THERE HAVE BEEN 3 ATTEMPTS TO REDUCE THE GRADIENT.
           DURING THESE ATTEMPTS THE ENERGY DROPPED BY LESS THAN 0.3 KCAL/MOLE
           FURTHER CALCULATION IS NOT JUSTIFIED AT THIS TIME.
           TO CONTINUE, START AGAIN WITH THE WORD "PRECISE"


          FOR POINT   13 SECOND STRUCTURE
 DISTANCE A - B      9.160154
 HEAT              -72.745804
 GRADIENT NORM       4.522974
 DIRECTION COSINE    0.053792
 geo_ref="Acetone in enol form.arc" saddle eps=78.4 html charge=1 xyz bar=0.005
 Locating Keto-Enol transition state for acetone using SADDLE

  C(HETATM    1  C1  HET A   1)  -1.89564460 +1   0.70391474 +1   0.12367966 +1
  C(HETATM    2  C2  HET A   1)  -0.44296206 +1   0.91263827 +1   0.02576834 +1
  C(HETATM    3  C3  HET A   1)   0.31643515 +1   1.94401942 +1   0.38050591 +1
  O(HETATM    4  O   HET A   1)   0.16605392 +1  -0.18266818 +1  -0.60719143 +1
  O(HETATM    5  O   HOH B   2)   2.64017598 +1  -0.16939467 +1  -0.29001060 +1
  H(HETATM    6 1H1  HET A   1)  -2.43032211 +1   1.63200783 +1   0.39651772 +1
  H(HETATM    7 2H1  HET A   1)  -2.33136813 +1   0.35321364 +1  -0.83227470 +1
  H(HETATM    8 3H1  HET A   1)  -2.16149605 +1  -0.05073061 +1   0.88488274 +1
  H(HETATM    9 1H3  HET A   1)   3.01113060 +1   0.10680418 +1  -1.16608778 +1
  H(HETATM   10 2H3  HET A   1)   1.38976986 +1   1.97864158 +1   0.26569432 +1
  H(HETATM   11 1H   HOH B   2)   1.29898458 +1  -0.18127895 +1  -0.48826906 +1
  H(HETATM   12 2H   HOH B   2)  -0.07906285 +1   2.85360711 +1   0.80795684 +1
  H(HETATM   13 3H   HOH B   2)   2.92295350 +1  -1.11500557 +1  -0.22675213 +1
  H(HETATM   14  H   HET A   1)  -0.16854030 +1  -1.20593968 +1  -0.11275033 +1
  O(HETATM   15  O   HOH J   3)  -0.53649517 +1  -2.29071350 +1   0.49426480 +1
  H(HETATM   16 1H   HOH J   3)   0.20258835 +1  -2.94308589 +1   0.35326331 +1
  H(HETATM   17 2H   HOH J   3)  -1.25451923 +1  -2.66821208 +1  -0.08198950 +1
 
 TIME=     0.25
  REACTANTS AND PRODUCTS SWAPPED AROUND
 *+*+*+*+*+*+*+*+*+*+*+*+*+*+*+*+*+*+*+*+*+*+*+*+*+*+*+*+*+*+*+*+*+*+*+*+*+*+*+*+
            BAR SHORTENED BY       0.500 PERCENT
 GRADIENT CRITERION IN FLEPO =     1.523
           THERE HAVE BEEN 3 ATTEMPTS TO REDUCE THE GRADIENT.
           DURING THESE ATTEMPTS THE ENERGY DROPPED BY LESS THAN 0.3 KCAL/MOLE
           FURTHER CALCULATION IS NOT JUSTIFIED AT THIS TIME.
           TO CONTINUE, START AGAIN WITH THE WORD "PRECISE"


          FOR POINT   14 FIRST  STRUCTURE
 DISTANCE A - B      9.114353
 HEAT              -87.787836
 GRADIENT NORM       6.278905
 DIRECTION COSINE    0.067542
 geo_ref="Acetone in enol form.arc" saddle eps=78.4 html charge=1 xyz bar=0.005
 Locating Keto-Enol transition state for acetone using SADDLE

  C(HETATM    1  C1  HET A   1)   0.09550969 +1   0.02838290 +1   0.11779815 +1
  C(HETATM    2  C2  HET A   1)   1.56172672 +1  -0.07348383 +1   0.04861499 +1
  C(HETATM    3  C3  HET A   1)   2.43926474 +1   1.10682161 +1   0.07146755 +1
  O(HETATM    4  O   HET A   1)   2.11894412 +1  -1.19097925 +1  -0.03711916 +1
  O(HETATM    5  O   HOH B   2)   5.00643546 +1  -1.10191224 +1  -0.84984856 +1
  H(HETATM    6 1H1  HET A   1)  -0.30404264 +1   0.98293715 +1  -0.27734058 +1
  H(HETATM    7 2H1  HET A   1)  -0.43239872 +1  -0.78249654 +1  -0.41684952 +1
  H(HETATM    8 3H1  HET A   1)  -0.26801748 +1  -0.02124467 +1   1.16891593 +1
  H(HETATM    9 1H3  HET A   1)   3.51497476 +1   0.85993332 +1   0.17663083 +1
  H(HETATM   10 2H3  HET A   1)   2.17887957 +1   1.81203722 +1   0.88245036 +1
  H(HETATM   11 1H   HOH B   2)   4.08485017 +1  -1.24456900 +1  -0.60618099 +1
  H(HETATM   12 2H   HOH B   2)   2.34083160 +1   1.69983712 +1  -0.86125842 +1
  H(HETATM   13 3H   HOH B   2)   5.09220256 +1  -1.54640876 +1  -1.70498903 +1
  H(HETATM   14  H   HET A   1)   1.36637981 +1  -2.24201797 +1  -0.05077040 +1
  O(HETATM   15  O   HOH J   3)   0.59548725 +1  -3.14363541 +1  -0.03503084 +1
  H(HETATM   16 1H   HOH J   3)   1.02990155 +1  -3.81240004 +1   0.57814829 +1
  H(HETATM   17 2H   HOH J   3)   0.72023146 +1  -3.58597701 +1  -0.93102064 +1
 
 *+*+*+*+*+*+*+*+*+*+*+*+*+*+*+*+*+*+*+*+*+*+*+*+*+*+*+*+*+*+*+*+*+*+*+*+*+*+*+*+
            BAR SHORTENED BY       0.500 PERCENT
 GRADIENT CRITERION IN FLEPO =     3.279


          FOR POINT   15 FIRST  STRUCTURE
 DISTANCE A - B      9.068782
 HEAT              -87.787557
 GRADIENT NORM       7.105096
 DIRECTION COSINE    0.101180
 geo_ref="Acetone in enol form.arc" saddle eps=78.4 html charge=1 xyz bar=0.005
 Locating Keto-Enol transition state for acetone using SADDLE

  C(HETATM    1  C1  HET A   1)   0.08497650 +1   0.03525996 +1   0.12000784 +1
  C(HETATM    2  C2  HET A   1)   1.55134650 +1  -0.07028392 +1   0.04755726 +1
  C(HETATM    3  C3  HET A   1)   2.43179113 +1   1.11078482 +1   0.06943431 +1
  O(HETATM    4  O   HET A   1)   2.10514382 +1  -1.19010885 +1  -0.03918942 +1
  O(HETATM    5  O   HOH B   2)   4.99325016 +1  -1.09128572 +1  -0.84618825 +1
  H(HETATM    6 1H1  HET A   1)  -0.30766311 +1   0.98884384 +1  -0.27049007 +1
  H(HETATM    7 2H1  HET A   1)  -0.44366808 +1  -0.77500959 +1  -0.41938323 +1
  H(HETATM    8 3H1  HET A   1)  -0.26030206 +1  -0.02529689 +1   1.17230291 +1
  H(HETATM    9 1H3  HET A   1)   3.50505256 +1   0.86371546 +1   0.16925425 +1
  H(HETATM   10 2H3  HET A   1)   2.17401634 +1   1.81493061 +1   0.88447472 +1
  H(HETATM   11 1H   HOH B   2)   4.07163288 +1  -1.23826981 +1  -0.60106110 +1
  H(HETATM   12 2H   HOH B   2)   2.32850798 +1   1.70871650 +1  -0.86076367 +1
  H(HETATM   13 3H   HOH B   2)   5.07978930 +1  -1.54532742 +1  -1.69395100 +1
  H(HETATM   14  H   HET A   1)   1.35387257 +1  -2.23632217 +1  -0.04924365 +1
  O(HETATM   15  O   HOH J   3)   0.57411169 +1  -3.14041333 +1  -0.03383549 +1
  H(HETATM   16 1H   HOH J   3)   1.01593745 +1  -3.80745886 +1   0.58126738 +1
  H(HETATM   17 2H   HOH J   3)   0.70765343 +1  -3.57957562 +1  -0.92906104 +1
 
 *+*+*+*+*+*+*+*+*+*+*+*+*+*+*+*+*+*+*+*+*+*+*+*+*+*+*+*+*+*+*+*+*+*+*+*+*+*+*+*+
            BAR SHORTENED BY       0.500 PERCENT
 GRADIENT CRITERION IN FLEPO =     4.105


          FOR POINT   16 FIRST  STRUCTURE
 DISTANCE A - B      9.023438
 HEAT              -87.703723
 GRADIENT NORM       5.588558
 DIRECTION COSINE    0.460723
 geo_ref="Acetone in enol form.arc" saddle eps=78.4 html charge=1 xyz bar=0.005
 Locating Keto-Enol transition state for acetone using SADDLE

  C(HETATM    1  C1  HET A   1)   0.07725155 +1   0.03844871 +1   0.11988978 +1
  C(HETATM    2  C2  HET A   1)   1.54220023 +1  -0.06552201 +1   0.04404140 +1
  C(HETATM    3  C3  HET A   1)   2.42337838 +1   1.11421173 +1   0.06800851 +1
  O(HETATM    4  O   HET A   1)   2.09555223 +1  -1.18505397 +1  -0.04100327 +1
  O(HETATM    5  O   HOH B   2)   4.98023915 +1  -1.08473932 +1  -0.84242458 +1
  H(HETATM    6 1H1  HET A   1)  -0.31928239 +1   0.99382079 +1  -0.26802335 +1
  H(HETATM    7 2H1  HET A   1)  -0.45519951 +1  -0.76800718 +1  -0.42040030 +1
  H(HETATM    8 3H1  HET A   1)  -0.27198780 +1  -0.02581439 +1   1.17292341 +1
  H(HETATM    9 1H3  HET A   1)   3.49825974 +1   0.87066143 +1   0.16240497 +1
  H(HETATM   10 2H3  HET A   1)   2.16951066 +1   1.81694105 +1   0.88502529 +1
  H(HETATM   11 1H   HOH B   2)   4.05893901 +1  -1.23196939 +1  -0.59678935 +1
  H(HETATM   12 2H   HOH B   2)   2.31610598 +1   1.71651617 +1  -0.85777498 +1
  H(HETATM   13 3H   HOH B   2)   5.07058463 +1  -1.54414442 +1  -1.68730677 +1
  H(HETATM   14  H   HET A   1)   1.34008506 +1  -2.23565280 +1  -0.04588705 +1
  O(HETATM   15  O   HOH J   3)   0.57065751 +1  -3.13528760 +1  -0.03008015 +1
  H(HETATM   16 1H   HOH J   3)   1.00916961 +1  -3.80091409 +1   0.58304070 +1
  H(HETATM   17 2H   HOH J   3)   0.69404727 +1  -3.57207147 +1  -0.92583865 +1
 
 TIME=     0.50
  REACTANTS AND PRODUCTS SWAPPED AROUND
 *+*+*+*+*+*+*+*+*+*+*+*+*+*+*+*+*+*+*+*+*+*+*+*+*+*+*+*+*+*+*+*+*+*+*+*+*+*+*+*+
            BAR SHORTENED BY       0.000 PERCENT
 GRADIENT CRITERION IN FLEPO =     2.589


          FOR POINT   17 SECOND STRUCTURE
 DISTANCE A - B      9.023438
 HEAT              -72.745863
 GRADIENT NORM       4.484811
 DIRECTION COSINE   -0.050776
 geo_ref="Acetone in enol form.arc" saddle eps=78.4 html charge=1 xyz bar=0.005
 Locating Keto-Enol transition state for acetone using SADDLE

  C(HETATM    1  C1  HET A   1)  -1.89564908 +1   0.70390794 +1   0.12367389 +1
  C(HETATM    2  C2  HET A   1)  -0.44295531 +1   0.91263996 +1   0.02577237 +1
  C(HETATM    3  C3  HET A   1)   0.31643903 +1   1.94401678 +1   0.38049874 +1
  O(HETATM    4  O   HET A   1)   0.16605798 +1  -0.18266093 +1  -0.60719536 +1
  O(HETATM    5  O   HOH B   2)   2.64019648 +1  -0.16939464 +1  -0.29001434 +1
  H(HETATM    6 1H1  HET A   1)  -2.43031989 +1   1.63199180 +1   0.39650922 +1
  H(HETATM    7 2H1  HET A   1)  -2.33136439 +1   0.35321806 +1  -0.83226836 +1
  H(HETATM    8 3H1  HET A   1)  -2.16149582 +1  -0.05073305 +1   0.88488774 +1
  H(HETATM    9 1H3  HET A   1)   3.01113699 +1   0.10680146 +1  -1.16608232 +1
  H(HETATM   10 2H3  HET A   1)   1.38979157 +1   1.97864425 +1   0.26570828 +1
  H(HETATM   11 1H   HOH B   2)   1.29896148 +1  -0.18127225 +1  -0.48826296 +1
  H(HETATM   12 2H   HOH B   2)  -0.07906276 +1   2.85360623 +1   0.80796137 +1
  H(HETATM   13 3H   HOH B   2)   2.92294600 +1  -1.11499238 +1  -0.22675281 +1
  H(HETATM   14  H   HET A   1)  -0.16854676 +1  -1.20594022 +1  -0.11275176 +1
  O(HETATM   15  O   HOH J   3)  -0.53650104 +1  -2.29072328 +1   0.49428622 +1
  H(HETATM   16 1H   HOH J   3)   0.20258488 +1  -2.94307277 +1   0.35327868 +1
  H(HETATM   17 2H   HOH J   3)  -1.25451739 +1  -2.66820660 +1  -0.08198979 +1
 
 TIME=     0.08
  REACTANTS AND PRODUCTS SWAPPED AROUND
 *+*+*+*+*+*+*+*+*+*+*+*+*+*+*+*+*+*+*+*+*+*+*+*+*+*+*+*+*+*+*+*+*+*+*+*+*+*+*+*+
            BAR SHORTENED BY       0.500 PERCENT
 GRADIENT CRITERION IN FLEPO =     1.485
           THERE HAVE BEEN 3 ATTEMPTS TO REDUCE THE GRADIENT.
           DURING THESE ATTEMPTS THE ENERGY DROPPED BY LESS THAN 0.3 KCAL/MOLE
           FURTHER CALCULATION IS NOT JUSTIFIED AT THIS TIME.
           TO CONTINUE, START AGAIN WITH THE WORD "PRECISE"


          FOR POINT   18 FIRST  STRUCTURE
 DISTANCE A - B      8.978321
 HEAT              -87.728552
 GRADIENT NORM       8.077015
 DIRECTION COSINE    0.136969
 geo_ref="Acetone in enol form.arc" saddle eps=78.4 html charge=1 xyz bar=0.005
 Locating Keto-Enol transition state for acetone using SADDLE

  C(HETATM    1  C1  HET A   1)   0.06795121 +1   0.04471382 +1   0.12363140 +1
  C(HETATM    2  C2  HET A   1)   1.53481396 +1  -0.06204085 +1   0.04553554 +1
  C(HETATM    3  C3  HET A   1)   2.41581129 +1   1.11895460 +1   0.06750238 +1
  O(HETATM    4  O   HET A   1)   2.08942028 +1  -1.18035799 +1  -0.04271693 +1
  O(HETATM    5  O   HOH B   2)   4.96831818 +1  -1.07892502 +1  -0.83900026 +1
  H(HETATM    6 1H1  HET A   1)  -0.32922705 +1   1.00248749 +1  -0.26208973 +1
  H(HETATM    7 2H1  HET A   1)  -0.46586219 +1  -0.75627102 +1  -0.42069836 +1
  H(HETATM    8 3H1  HET A   1)  -0.28368208 +1  -0.02306396 +1   1.17647001 +1
  H(HETATM    9 1H3  HET A   1)   3.48263357 +1   0.87134169 +1   0.15620076 +1
  H(HETATM   10 2H3  HET A   1)   2.16495846 +1   1.81798023 +1   0.89232905 +1
  H(HETATM   11 1H   HOH B   2)   4.04814670 +1  -1.22654183 +1  -0.59195558 +1
  H(HETATM   12 2H   HOH B   2)   2.30497653 +1   1.72317781 +1  -0.85828149 +1
  H(HETATM   13 3H   HOH B   2)   5.05815075 +1  -1.54345936 +1  -1.68169614 +1
  H(HETATM   14  H   HET A   1)   1.33155294 +1  -2.23003770 +1  -0.04770734 +1
  O(HETATM   15  O   HOH J   3)   0.56292847 +1  -3.13078108 +1  -0.02600909 +1
  H(HETATM   16 1H   HOH J   3)   1.00417960 +1  -3.79783075 +1   0.58354732 +1
  H(HETATM   17 2H   HOH J   3)   0.67016823 +1  -3.56932811 +1  -0.92359496 +1
 
 *+*+*+*+*+*+*+*+*+*+*+*+*+*+*+*+*+*+*+*+*+*+*+*+*+*+*+*+*+*+*+*+*+*+*+*+*+*+*+*+
            BAR SHORTENED BY       0.500 PERCENT
 GRADIENT CRITERION IN FLEPO =     5.077


          FOR POINT   19 FIRST  STRUCTURE
 DISTANCE A - B      8.933429
 HEAT              -87.741094
 GRADIENT NORM       8.678788
 DIRECTION COSINE   -0.003977
 geo_ref="Acetone in enol form.arc" saddle eps=78.4 html charge=1 xyz bar=0.005
 Locating Keto-Enol transition state for acetone using SADDLE

  C(HETATM    1  C1  HET A   1)   0.05994435 +1   0.04983498 +1   0.12532926 +1
  C(HETATM    2  C2  HET A   1)   1.52328671 +1  -0.05552455 +1   0.04361501 +1
  C(HETATM    3  C3  HET A   1)   2.40340940 +1   1.12481207 +1   0.06714238 +1
  O(HETATM    4  O   HET A   1)   2.07721317 +1  -1.17706717 +1  -0.04731528 +1
  O(HETATM    5  O   HOH B   2)   4.95490156 +1  -1.07249830 +1  -0.83453135 +1
  H(HETATM    6 1H1  HET A   1)  -0.33750663 +1   1.00793570 +1  -0.25653787 +1
  H(HETATM    7 2H1  HET A   1)  -0.47683536 +1  -0.75247161 +1  -0.42445050 +1
  H(HETATM    8 3H1  HET A   1)  -0.29484424 +1  -0.02490386 +1   1.17719134 +1
  H(HETATM    9 1H3  HET A   1)   3.47680116 +1   0.87031614 +1   0.15187492 +1
  H(HETATM   10 2H3  HET A   1)   2.15928779 +1   1.82070607 +1   0.89189845 +1
  H(HETATM   11 1H   HOH B   2)   4.03622506 +1  -1.21966571 +1  -0.58909204 +1
  H(HETATM   12 2H   HOH B   2)   2.29130816 +1   1.73135839 +1  -0.85487471 +1
  H(HETATM   13 3H   HOH B   2)   5.04932152 +1  -1.54310368 +1  -1.67616842 +1
  H(HETATM   14  H   HET A   1)   1.32587433 +1  -2.22316706 +1  -0.04997356 +1
  O(HETATM   15  O   HOH J   3)   0.55530695 +1  -3.12491906 +1  -0.02155337 +1
  H(HETATM   16 1H   HOH J   3)   1.00189968 +1  -3.79532983 +1   0.58423151 +1
  H(HETATM   17 2H   HOH J   3)   0.66241337 +1  -3.56658443 +1  -0.92120557 +1
 
 TIME=     0.36
  REACTANTS AND PRODUCTS SWAPPED AROUND
 *+*+*+*+*+*+*+*+*+*+*+*+*+*+*+*+*+*+*+*+*+*+*+*+*+*+*+*+*+*+*+*+*+*+*+*+*+*+*+*+
            BAR SHORTENED BY       0.500 PERCENT
 GRADIENT CRITERION IN FLEPO =     5.679


          FOR POINT   20 SECOND STRUCTURE
 DISTANCE A - B      8.888762
 HEAT              -72.630915
 GRADIENT NORM       8.433222
 DIRECTION COSINE    0.095389
 geo_ref="Acetone in enol form.arc" saddle eps=78.4 html charge=1 xyz bar=0.005
 Locating Keto-Enol transition state for acetone using SADDLE

  C(HETATM    1  C1  HET A   1)  -1.88691095 +1   0.69891833 +1   0.12223228 +1
  C(HETATM    2  C2  HET A   1)  -0.43153190 +1   0.90885954 +1   0.02709171 +1
  C(HETATM    3  C3  HET A   1)   0.32572037 +1   1.93849803 +1   0.37736258 +1
  O(HETATM    4  O   HET A   1)   0.17764686 +1  -0.18622377 +1  -0.60583319 +1
  O(HETATM    5  O   HOH B   2)   2.65037452 +1  -0.17540596 +1  -0.29041841 +1
  H(HETATM    6 1H1  HET A   1)  -2.41834975 +1   1.62742900 +1   0.39172323 +1
  H(HETATM    7 2H1  HET A   1)  -2.32043186 +1   0.34461647 +1  -0.82887315 +1
  H(HETATM    8 3H1  HET A   1)  -2.15021437 +1  -0.05265257 +1   0.88840708 +1
  H(HETATM    9 1H3  HET A   1)   3.01609703 +1   0.11282311 +1  -1.16156899 +1
  H(HETATM   10 2H3  HET A   1)   1.39680223 +1   1.97565161 +1   0.26691680 +1
  H(HETATM   11 1H   HOH B   2)   1.30216012 +1  -0.18797606 +1  -0.48644722 +1
  H(HETATM   12 2H   HOH B   2)  -0.06932502 +1   2.84987265 +1   0.80185378 +1
  H(HETATM   13 3H   HOH B   2)   2.93611720 +1  -1.11979080 +1  -0.23758538 +1
  H(HETATM   14  H   HET A   1)  -0.15919853 +1  -1.21240453 +1  -0.11464663 +1
  O(HETATM   15  O   HOH J   3)  -0.52983461 +1  -2.29697824 +1   0.49322202 +1
  H(HETATM   16 1H   HOH J   3)   0.21056569 +1  -2.94628595 +1   0.35603341 +1
  H(HETATM   17 2H   HOH J   3)  -1.24601322 +1  -2.67414301 +1  -0.08777746 +1
 
 TIME=     0.06
  REACTANTS AND PRODUCTS SWAPPED AROUND
 *+*+*+*+*+*+*+*+*+*+*+*+*+*+*+*+*+*+*+*+*+*+*+*+*+*+*+*+*+*+*+*+*+*+*+*+*+*+*+*+
            BAR SHORTENED BY       0.500 PERCENT
 GRADIENT CRITERION IN FLEPO =     5.433


          FOR POINT   21 FIRST  STRUCTURE
 DISTANCE A - B      8.844318
 HEAT              -87.707416
 GRADIENT NORM       4.885229
 DIRECTION COSINE   -0.038523
 geo_ref="Acetone in enol form.arc" saddle eps=78.4 html charge=1 xyz bar=0.005
 Locating Keto-Enol transition state for acetone using SADDLE

  C(HETATM    1  C1  HET A   1)   0.04929643 +1   0.05266734 +1   0.12472203 +1
  C(HETATM    2  C2  HET A   1)   1.51458186 +1  -0.05192117 +1   0.04390316 +1
  C(HETATM    3  C3  HET A   1)   2.39588960 +1   1.12742577 +1   0.06717299 +1
  O(HETATM    4  O   HET A   1)   2.06814300 +1  -1.17123161 +1  -0.04889535 +1
  O(HETATM    5  O   HOH B   2)   4.94349932 +1  -1.06512227 +1  -0.83220411 +1
  H(HETATM    6 1H1  HET A   1)  -0.34774668 +1   1.01256693 +1  -0.24937285 +1
  H(HETATM    7 2H1  HET A   1)  -0.48419855 +1  -0.74588716 +1  -0.42501520 +1
  H(HETATM    8 3H1  HET A   1)  -0.30222447 +1  -0.02310632 +1   1.17700860 +1
  H(HETATM    9 1H3  HET A   1)   3.47005779 +1   0.87263150 +1   0.14698643 +1
  H(HETATM   10 2H3  HET A   1)   2.15442617 +1   1.82288966 +1   0.89216282 +1
  H(HETATM   11 1H   HOH B   2)   4.02186859 +1  -1.21442432 +1  -0.58614189 +1
  H(HETATM   12 2H   HOH B   2)   2.27931725 +1   1.73888273 +1  -0.85245477 +1
  H(HETATM   13 3H   HOH B   2)   5.03700324 +1  -1.54055067 +1  -1.66811606 +1
  H(HETATM   14  H   HET A   1)   1.31721809 +1  -2.21803316 +1  -0.05004661 +1
  O(HETATM   15  O   HOH J   3)   0.54289973 +1  -3.12287551 +1  -0.01878203 +1
  H(HETATM   16 1H   HOH J   3)   0.99663657 +1  -3.78990819 +1   0.58414862 +1
  H(HETATM   17 2H   HOH J   3)   0.65003597 +1  -3.56041019 +1  -0.91620144 +1
 
 TIME=     0.05
  REACTANTS AND PRODUCTS SWAPPED AROUND
 *+*+*+*+*+*+*+*+*+*+*+*+*+*+*+*+*+*+*+*+*+*+*+*+*+*+*+*+*+*+*+*+*+*+*+*+*+*+*+*+
            BAR SHORTENED BY       0.500 PERCENT
 GRADIENT CRITERION IN FLEPO =     1.885


          FOR POINT   22 SECOND STRUCTURE
 DISTANCE A - B      8.800096
 HEAT              -72.658404
 GRADIENT NORM       3.504308
 DIRECTION COSINE    0.200515
 geo_ref="Acetone in enol form.arc" saddle eps=78.4 html charge=1 xyz bar=0.005
 Locating Keto-Enol transition state for acetone using SADDLE

  C(HETATM    1  C1  HET A   1)  -1.87731674 +1   0.69280422 +1   0.12272335 +1
  C(HETATM    2  C2  HET A   1)  -0.42384906 +1   0.90228794 +1   0.02548509 +1
  C(HETATM    3  C3  HET A   1)   0.33368260 +1   1.93651251 +1   0.37636324 +1
  O(HETATM    4  O   HET A   1)   0.18746811 +1  -0.19421182 +1  -0.60351223 +1
  O(HETATM    5  O   HOH B   2)   2.66317352 +1  -0.17924860 +1  -0.28938067 +1
  H(HETATM    6 1H1  HET A   1)  -2.41162795 +1   1.62319602 +1   0.38587698 +1
  H(HETATM    7 2H1  HET A   1)  -2.31312304 +1   0.33329756 +1  -0.82783651 +1
  H(HETATM    8 3H1  HET A   1)  -2.14277190 +1  -0.05346804 +1   0.89283937 +1
  H(HETATM    9 1H3  HET A   1)   3.02673666 +1   0.12077440 +1  -1.15906091 +1
  H(HETATM   10 2H3  HET A   1)   1.40756100 +1   1.97149325 +1   0.26890189 +1
  H(HETATM   11 1H   HOH B   2)   1.31812779 +1  -0.19294517 +1  -0.47773896 +1
  H(HETATM   12 2H   HOH B   2)  -0.06436213 +1   2.84763631 +1   0.79947434 +1
  H(HETATM   13 3H   HOH B   2)   2.94987295 +1  -1.12597281 +1  -0.24840769 +1
  H(HETATM   14  H   HET A   1)  -0.15441502 +1  -1.21846688 +1  -0.10474633 +1
  O(HETATM   15  O   HOH J   3)  -0.52601971 +1  -2.30413728 +1   0.49176512 +1
  H(HETATM   16 1H   HOH J   3)   0.21812213 +1  -2.95073113 +1   0.35952797 +1
  H(HETATM   17 2H   HOH J   3)  -1.23461349 +1  -2.68329110 +1  -0.09529786 +1
 
 TIME=     0.17
  REACTANTS AND PRODUCTS SWAPPED AROUND
 *+*+*+*+*+*+*+*+*+*+*+*+*+*+*+*+*+*+*+*+*+*+*+*+*+*+*+*+*+*+*+*+*+*+*+*+*+*+*+*+
            BAR SHORTENED BY       0.500 PERCENT
 GRADIENT CRITERION IN FLEPO =     1.885
 

                    SINCE COS WAS JUST RESET,THE SEARCH IS BEING ENDED


          FOR POINT   23 FIRST  STRUCTURE
 DISTANCE A - B      8.756096
 HEAT              -87.869673
 GRADIENT NORM      13.815273
 DIRECTION COSINE    0.228153
 geo_ref="Acetone in enol form.arc" saddle eps=78.4 html charge=1 xyz bar=0.005
 Locating Keto-Enol transition state for acetone using SADDLE

  C(HETATM    1  C1  HET A   1)   0.04053026 +1   0.05739280 +1   0.12522263 +1
  C(HETATM    2  C2  HET A   1)   1.50678337 +1  -0.04736385 +1   0.04404037 +1
  C(HETATM    3  C3  HET A   1)   2.38862368 +1   1.13068968 +1   0.05916732 +1
  O(HETATM    4  O   HET A   1)   2.06023929 +1  -1.16750090 +1  -0.05138773 +1
  O(HETATM    5  O   HOH B   2)   4.93198184 +1  -1.06010314 +1  -0.82955135 +1
  H(HETATM    6 1H1  HET A   1)  -0.35722595 +1   1.01821351 +1  -0.24661097 +1
  H(HETATM    7 2H1  HET A   1)  -0.49238376 +1  -0.73372118 +1  -0.42660384 +1
  H(HETATM    8 3H1  HET A   1)  -0.31103614 +1  -0.02342970 +1   1.17821290 +1
  H(HETATM    9 1H3  HET A   1)   3.46197515 +1   0.87864350 +1   0.14111940 +1
  H(HETATM   10 2H3  HET A   1)   2.15038688 +1   1.82439980 +1   0.89408446 +1
  H(HETATM   11 1H   HOH B   2)   4.01127054 +1  -1.20939018 +1  -0.58112463 +1
  H(HETATM   12 2H   HOH B   2)   2.26902980 +1   1.74555899 +1  -0.85161289 +1
  H(HETATM   13 3H   HOH B   2)   5.02743659 +1  -1.53889125 +1  -1.66148219 +1
  H(HETATM   14  H   HET A   1)   1.29871014 +1  -2.21940848 +1  -0.04922158 +1
  O(HETATM   15  O   HOH J   3)   0.53426613 +1  -3.11829515 +1  -0.01611519 +1
  H(HETATM   16 1H   HOH J   3)   0.95124694 +1  -3.78545822 +1   0.59027720 +1
  H(HETATM   17 2H   HOH J   3)   0.63773485 +1  -3.55665209 +1  -0.91372947 +1
 
 *+*+*+*+*+*+*+*+*+*+*+*+*+*+*+*+*+*+*+*+*+*+*+*+*+*+*+*+*+*+*+*+*+*+*+*+*+*+*+*+
            BAR SHORTENED BY       0.500 PERCENT
 GRADIENT CRITERION IN FLEPO =    10.000


          FOR POINT   24 FIRST  STRUCTURE
 DISTANCE A - B      8.712316
 HEAT              -87.952104
 GRADIENT NORM       6.559817
 DIRECTION COSINE    0.468360
 geo_ref="Acetone in enol form.arc" saddle eps=78.4 html charge=1 xyz bar=0.005
 Locating Keto-Enol transition state for acetone using SADDLE

  C(HETATM    1  C1  HET A   1)   0.03208320 +1   0.06288766 +1   0.12750270 +1
  C(HETATM    2  C2  HET A   1)   1.49746542 +1  -0.04329329 +1   0.04222585 +1
  C(HETATM    3  C3  HET A   1)   2.38033358 +1   1.13558658 +1   0.06333195 +1
  O(HETATM    4  O   HET A   1)   2.04976881 +1  -1.16205606 +1  -0.05284164 +1
  O(HETATM    5  O   HOH B   2)   4.91912095 +1  -1.05338919 +1  -0.82572992 +1
  H(HETATM    6 1H1  HET A   1)  -0.36788121 +1   1.02464274 +1  -0.24102778 +1
  H(HETATM    7 2H1  HET A   1)  -0.50272952 +1  -0.72984528 +1  -0.42986931 +1
  H(HETATM    8 3H1  HET A   1)  -0.32085870 +1  -0.02145398 +1   1.17785406 +1
  H(HETATM    9 1H3  HET A   1)   3.45548413 +1   0.87971230 +1   0.13303641 +1
  H(HETATM   10 2H3  HET A   1)   2.14604348 +1   1.82597704 +1   0.90359135 +1
  H(HETATM   11 1H   HOH B   2)   3.99849070 +1  -1.20422295 +1  -0.57749427 +1
  H(HETATM   12 2H   HOH B   2)   2.25544250 +1   1.75474983 +1  -0.84890263 +1
  H(HETATM   13 3H   HOH B   2)   5.01471280 +1  -1.53813636 +1  -1.65513108 +1
  H(HETATM   14  H   HET A   1)   1.29386319 +1  -2.21314650 +1  -0.04738538 +1
  O(HETATM   15  O   HOH J   3)   0.52327774 +1  -3.11086072 +1  -0.01684752 +1
  H(HETATM   16 1H   HOH J   3)   0.95235040 +1  -3.78453019 +1   0.59284105 +1
  H(HETATM   17 2H   HOH J   3)   0.62663381 +1  -3.55404021 +1  -0.91358957 +1
 
 *+*+*+*+*+*+*+*+*+*+*+*+*+*+*+*+*+*+*+*+*+*+*+*+*+*+*+*+*+*+*+*+*+*+*+*+*+*+*+*+
            BAR SHORTENED BY       0.500 PERCENT
 GRADIENT CRITERION IN FLEPO =     3.560
           THERE HAVE BEEN 3 ATTEMPTS TO REDUCE THE GRADIENT.
           DURING THESE ATTEMPTS THE ENERGY DROPPED BY LESS THAN 0.3 KCAL/MOLE
           FURTHER CALCULATION IS NOT JUSTIFIED AT THIS TIME.
           TO CONTINUE, START AGAIN WITH THE WORD "PRECISE"


          FOR POINT   25 FIRST  STRUCTURE
 DISTANCE A - B      8.668754
 HEAT              -87.936066
 GRADIENT NORM       9.449870
 DIRECTION COSINE    0.382211
 geo_ref="Acetone in enol form.arc" saddle eps=78.4 html charge=1 xyz bar=0.005
 Locating Keto-Enol transition state for acetone using SADDLE

  C(HETATM    1  C1  HET A   1)   0.02283930 +1   0.06612307 +1   0.12737040 +1
  C(HETATM    2  C2  HET A   1)   1.48715456 +1  -0.03741882 +1   0.04209909 +1
  C(HETATM    3  C3  HET A   1)   2.37057127 +1   1.13937142 +1   0.06504415 +1
  O(HETATM    4  O   HET A   1)   2.04068838 +1  -1.15721790 +1  -0.05536215 +1
  O(HETATM    5  O   HOH B   2)   4.90738257 +1  -1.04860837 +1  -0.82281675 +1
  H(HETATM    6 1H1  HET A   1)  -0.37834573 +1   1.02902624 +1  -0.23787232 +1
  H(HETATM    7 2H1  HET A   1)  -0.51212493 +1  -0.72463493 +1  -0.43197406 +1
  H(HETATM    8 3H1  HET A   1)  -0.33034946 +1  -0.02176839 +1   1.17664438 +1
  H(HETATM    9 1H3  HET A   1)   3.45238630 +1   0.88338262 +1   0.12619175 +1
  H(HETATM   10 2H3  HET A   1)   2.14266872 +1   1.82667830 +1   0.90170886 +1
  H(HETATM   11 1H   HOH B   2)   3.98501884 +1  -1.19886319 +1  -0.57678393 +1
  H(HETATM   12 2H   HOH B   2)   2.24350741 +1   1.76075962 +1  -0.84092905 +1
  H(HETATM   13 3H   HOH B   2)   5.00433783 +1  -1.53621116 +1  -1.64810508 +1
  H(HETATM   14  H   HET A   1)   1.28670014 +1  -2.20839588 +1  -0.04776712 +1
  O(HETATM   15  O   HOH J   3)   0.51663553 +1  -3.10690243 +1  -0.01411349 +1
  H(HETATM   16 1H   HOH J   3)   0.94865775 +1  -3.78005920 +1   0.60190497 +1
  H(HETATM   17 2H   HOH J   3)   0.61669784 +1  -3.54972425 +1  -0.90961236 +1
 
 TIME=     0.81
  REACTANTS AND PRODUCTS SWAPPED AROUND
 *+*+*+*+*+*+*+*+*+*+*+*+*+*+*+*+*+*+*+*+*+*+*+*+*+*+*+*+*+*+*+*+*+*+*+*+*+*+*+*+
            BAR SHORTENED BY       0.000 PERCENT
 GRADIENT CRITERION IN FLEPO =     6.450


          FOR POINT   26 SECOND STRUCTURE
 DISTANCE A - B      8.668754
 HEAT              -72.658404
 GRADIENT NORM       3.504171
 DIRECTION COSINE    0.134506
 geo_ref="Acetone in enol form.arc" saddle eps=78.4 html charge=1 xyz bar=0.005
 Locating Keto-Enol transition state for acetone using SADDLE

  C(HETATM    1  C1  HET A   1)  -1.87731674 +1   0.69280422 +1   0.12272335 +1
  C(HETATM    2  C2  HET A   1)  -0.42384906 +1   0.90228794 +1   0.02548509 +1
  C(HETATM    3  C3  HET A   1)   0.33368260 +1   1.93651251 +1   0.37636324 +1
  O(HETATM    4  O   HET A   1)   0.18746811 +1  -0.19421182 +1  -0.60351223 +1
  O(HETATM    5  O   HOH B   2)   2.66317352 +1  -0.17924860 +1  -0.28938067 +1
  H(HETATM    6 1H1  HET A   1)  -2.41162795 +1   1.62319602 +1   0.38587698 +1
  H(HETATM    7 2H1  HET A   1)  -2.31312304 +1   0.33329756 +1  -0.82783651 +1
  H(HETATM    8 3H1  HET A   1)  -2.14277190 +1  -0.05346804 +1   0.89283937 +1
  H(HETATM    9 1H3  HET A   1)   3.02673666 +1   0.12077440 +1  -1.15906091 +1
  H(HETATM   10 2H3  HET A   1)   1.40756100 +1   1.97149325 +1   0.26890189 +1
  H(HETATM   11 1H   HOH B   2)   1.31812779 +1  -0.19294517 +1  -0.47773896 +1
  H(HETATM   12 2H   HOH B   2)  -0.06436213 +1   2.84763631 +1   0.79947434 +1
  H(HETATM   13 3H   HOH B   2)   2.94987295 +1  -1.12597281 +1  -0.24840769 +1
  H(HETATM   14  H   HET A   1)  -0.15441502 +1  -1.21846688 +1  -0.10474633 +1
  O(HETATM   15  O   HOH J   3)  -0.52601971 +1  -2.30413728 +1   0.49176512 +1
  H(HETATM   16 1H   HOH J   3)   0.21812213 +1  -2.95073113 +1   0.35952797 +1
  H(HETATM   17 2H   HOH J   3)  -1.23461349 +1  -2.68329110 +1  -0.09529786 +1
 
 TIME=     0.03
  REACTANTS AND PRODUCTS SWAPPED AROUND
 *+*+*+*+*+*+*+*+*+*+*+*+*+*+*+*+*+*+*+*+*+*+*+*+*+*+*+*+*+*+*+*+*+*+*+*+*+*+*+*+
            BAR SHORTENED BY       0.500 PERCENT
 GRADIENT CRITERION IN FLEPO =     6.450


          FOR POINT   27 FIRST  STRUCTURE
 DISTANCE A - B      8.625410
 HEAT              -87.885891
 GRADIENT NORM      11.443173
 DIRECTION COSINE    0.237146
 geo_ref="Acetone in enol form.arc" saddle eps=78.4 html charge=1 xyz bar=0.005
 Locating Keto-Enol transition state for acetone using SADDLE

  C(HETATM    1  C1  HET A   1)   0.01225178 +1   0.07084069 +1   0.12580190 +1
  C(HETATM    2  C2  HET A   1)   1.47978979 +1  -0.03464811 +1   0.04062142 +1
  C(HETATM    3  C3  HET A   1)   2.36377797 +1   1.14141195 +1   0.06795437 +1
  O(HETATM    4  O   HET A   1)   2.03049886 +1  -1.15119531 +1  -0.05620843 +1
  O(HETATM    5  O   HOH B   2)   4.89497436 +1  -1.04240610 +1  -0.81851114 +1
  H(HETATM    6 1H1  HET A   1)  -0.38929768 +1   1.03665316 +1  -0.23309641 +1
  H(HETATM    7 2H1  HET A   1)  -0.52203382 +1  -0.72113074 +1  -0.43530623 +1
  H(HETATM    8 3H1  HET A   1)  -0.34041683 +1  -0.02339874 +1   1.17717775 +1
  H(HETATM    9 1H3  HET A   1)   3.44687603 +1   0.88533579 +1   0.11877873 +1
  H(HETATM   10 2H3  HET A   1)   2.13751871 +1   1.82922103 +1   0.90234960 +1
  H(HETATM   11 1H   HOH B   2)   3.97442741 +1  -1.19239438 +1  -0.57375731 +1
  H(HETATM   12 2H   HOH B   2)   2.23087194 +1   1.76800686 +1  -0.83580565 +1
  H(HETATM   13 3H   HOH B   2)   4.99640679 +1  -1.53612092 +1  -1.64329412 +1
  H(HETATM   14  H   HET A   1)   1.27734361 +1  -2.20228018 +1  -0.04956781 +1
  O(HETATM   15  O   HOH J   3)   0.50710184 +1  -3.10489110 +1  -0.00986332 +1
  H(HETATM   16 1H   HOH J   3)   0.94366883 +1  -3.77418655 +1   0.59890884 +1
  H(HETATM   17 2H   HOH J   3)   0.60356974 +1  -3.54736665 +1  -0.90763913 +1
 
 *+*+*+*+*+*+*+*+*+*+*+*+*+*+*+*+*+*+*+*+*+*+*+*+*+*+*+*+*+*+*+*+*+*+*+*+*+*+*+*+
            BAR SHORTENED BY       0.500 PERCENT
 GRADIENT CRITERION IN FLEPO =     8.443
 

                    SINCE COS WAS JUST RESET,THE SEARCH IS BEING ENDED


          FOR POINT   28 FIRST  STRUCTURE
 DISTANCE A - B      8.582283
 HEAT              -87.721794
 GRADIENT NORM      17.729519
 DIRECTION COSINE    0.843503
 geo_ref="Acetone in enol form.arc" saddle eps=78.4 html charge=1 xyz bar=0.005
 Locating Keto-Enol transition state for acetone using SADDLE

  C(HETATM    1  C1  HET A   1)   0.00280393 +1   0.07395051 +1   0.12578651 +1
  C(HETATM    2  C2  HET A   1)   1.47027160 +1  -0.02996343 +1   0.04054574 +1
  C(HETATM    3  C3  HET A   1)   2.35362749 +1   1.14538745 +1   0.06949641 +1
  O(HETATM    4  O   HET A   1)   2.02128371 +1  -1.14641039 +1  -0.05894495 +1
  O(HETATM    5  O   HOH B   2)   4.88381535 +1  -1.03809031 +1  -0.81586548 +1
  H(HETATM    6 1H1  HET A   1)  -0.39940933 +1   1.03958587 +1  -0.23000154 +1
  H(HETATM    7 2H1  HET A   1)  -0.53098926 +1  -0.71585860 +1  -0.43726888 +1
  H(HETATM    8 3H1  HET A   1)  -0.34942860 +1  -0.02354909 +1   1.17575606 +1
  H(HETATM    9 1H3  HET A   1)   3.44477533 +1   0.88151298 +1   0.11238953 +1
  H(HETATM   10 2H3  HET A   1)   2.13386892 +1   1.82993239 +1   0.89918237 +1
  H(HETATM   11 1H   HOH B   2)   3.96114592 +1  -1.18739713 +1  -0.57327721 +1
  H(HETATM   12 2H   HOH B   2)   2.21939578 +1   1.77340501 +1  -0.82762925 +1
  H(HETATM   13 3H   HOH B   2)   4.98617412 +1  -1.53407018 +1  -1.63631968 +1
  H(HETATM   14  H   HET A   1)   1.27018482 +1  -2.19736111 +1  -0.04984370 +1
  O(HETATM   15  O   HOH J   3)   0.50193624 +1  -3.10088733 +1  -0.00735518 +1
  H(HETATM   16 1H   HOH J   3)   0.94004109 +1  -3.77006928 +1   0.59771193 +1
  H(HETATM   17 2H   HOH J   3)   0.59437883 +1  -3.54304628 +1  -0.90357742 +1
 
 *+*+*+*+*+*+*+*+*+*+*+*+*+*+*+*+*+*+*+*+*+*+*+*+*+*+*+*+*+*+*+*+*+*+*+*+*+*+*+*+
            BAR SHORTENED BY       0.500 PERCENT
 GRADIENT CRITERION IN FLEPO =    10.000


          FOR POINT   29 FIRST  STRUCTURE
 DISTANCE A - B      8.539372
 HEAT              -87.609878
 GRADIENT NORM      11.539203
 DIRECTION COSINE    0.224308
 geo_ref="Acetone in enol form.arc" saddle eps=78.4 html charge=1 xyz bar=0.005
 Locating Keto-Enol transition state for acetone using SADDLE

  C(HETATM    1  C1  HET A   1)  -0.00428199 +1   0.08262120 +1   0.13081281 +1
  C(HETATM    2  C2  HET A   1)   1.46152119 +1  -0.02558524 +1   0.04259809 +1
  C(HETATM    3  C3  HET A   1)   2.35321826 +1   1.14643003 +1   0.06740823 +1
  O(HETATM    4  O   HET A   1)   2.01487910 +1  -1.14370105 +1  -0.05506641 +1
  O(HETATM    5  O   HOH B   2)   4.87324406 +1  -1.03167408 +1  -0.81230358 +1
  H(HETATM    6 1H1  HET A   1)  -0.40730948 +1   1.04798972 +1  -0.22161313 +1
  H(HETATM    7 2H1  HET A   1)  -0.53821071 +1  -0.70202644 +1  -0.43333364 +1
  H(HETATM    8 3H1  HET A   1)  -0.35744992 +1  -0.01902288 +1   1.18445955 +1
  H(HETATM    9 1H3  HET A   1)   3.43043255 +1   0.89361869 +1   0.11263602 +1
  H(HETATM   10 2H3  HET A   1)   2.12992827 +1   1.83466897 +1   0.90474090 +1
  H(HETATM   11 1H   HOH B   2)   3.95111025 +1  -1.18031838 +1  -0.56406453 +1
  H(HETATM   12 2H   HOH B   2)   2.20809179 +1   1.78336816 +1  -0.83277035 +1
  H(HETATM   13 3H   HOH B   2)   4.94752290 +1  -1.53338458 +1  -1.63135603 +1
  H(HETATM   14  H   HET A   1)   1.26236106 +1  -2.19357231 +1  -0.04504217 +1
  O(HETATM   15  O   HOH J   3)   0.48874008 +1  -3.09662184 +1   0.00109675 +1
  H(HETATM   16 1H   HOH J   3)   0.93941473 +1  -3.76703894 +1   0.59848932 +1
  H(HETATM   17 2H   HOH J   3)   0.57780963 +1  -3.53424029 +1  -0.90217339 +1
 
 TIME=     0.22
  REACTANTS AND PRODUCTS SWAPPED AROUND
 *+*+*+*+*+*+*+*+*+*+*+*+*+*+*+*+*+*+*+*+*+*+*+*+*+*+*+*+*+*+*+*+*+*+*+*+*+*+*+*+
            BAR SHORTENED BY       0.000 PERCENT
 GRADIENT CRITERION IN FLEPO =     8.539


          FOR POINT   30 SECOND STRUCTURE
 DISTANCE A - B      8.539372
 HEAT              -72.658404
 GRADIENT NORM       3.504160
 DIRECTION COSINE    0.168647
 geo_ref="Acetone in enol form.arc" saddle eps=78.4 html charge=1 xyz bar=0.005
 Locating Keto-Enol transition state for acetone using SADDLE

  C(HETATM    1  C1  HET A   1)  -1.87731674 +1   0.69280422 +1   0.12272335 +1
  C(HETATM    2  C2  HET A   1)  -0.42384906 +1   0.90228794 +1   0.02548509 +1
  C(HETATM    3  C3  HET A   1)   0.33368260 +1   1.93651251 +1   0.37636324 +1
  O(HETATM    4  O   HET A   1)   0.18746811 +1  -0.19421182 +1  -0.60351223 +1
  O(HETATM    5  O   HOH B   2)   2.66317352 +1  -0.17924860 +1  -0.28938067 +1
  H(HETATM    6 1H1  HET A   1)  -2.41162795 +1   1.62319602 +1   0.38587698 +1
  H(HETATM    7 2H1  HET A   1)  -2.31312304 +1   0.33329756 +1  -0.82783651 +1
  H(HETATM    8 3H1  HET A   1)  -2.14277190 +1  -0.05346804 +1   0.89283937 +1
  H(HETATM    9 1H3  HET A   1)   3.02673666 +1   0.12077440 +1  -1.15906091 +1
  H(HETATM   10 2H3  HET A   1)   1.40756100 +1   1.97149325 +1   0.26890189 +1
  H(HETATM   11 1H   HOH B   2)   1.31812779 +1  -0.19294517 +1  -0.47773896 +1
  H(HETATM   12 2H   HOH B   2)  -0.06436213 +1   2.84763631 +1   0.79947434 +1
  H(HETATM   13 3H   HOH B   2)   2.94987295 +1  -1.12597281 +1  -0.24840769 +1
  H(HETATM   14  H   HET A   1)  -0.15441502 +1  -1.21846688 +1  -0.10474633 +1
  O(HETATM   15  O   HOH J   3)  -0.52601971 +1  -2.30413728 +1   0.49176512 +1
  H(HETATM   16 1H   HOH J   3)   0.21812213 +1  -2.95073113 +1   0.35952797 +1
  H(HETATM   17 2H   HOH J   3)  -1.23461349 +1  -2.68329110 +1  -0.09529786 +1
 
 TIME=     0.03
  REACTANTS AND PRODUCTS SWAPPED AROUND
 *+*+*+*+*+*+*+*+*+*+*+*+*+*+*+*+*+*+*+*+*+*+*+*+*+*+*+*+*+*+*+*+*+*+*+*+*+*+*+*+
            BAR SHORTENED BY       0.500 PERCENT
 GRADIENT CRITERION IN FLEPO =     8.539


          FOR POINT   31 FIRST  STRUCTURE
 DISTANCE A - B      8.496675
 HEAT              -87.609523
 GRADIENT NORM      12.126060
 DIRECTION COSINE    0.171106
 geo_ref="Acetone in enol form.arc" saddle eps=78.4 html charge=1 xyz bar=0.005
 Locating Keto-Enol transition state for acetone using SADDLE

  C(HETATM    1  C1  HET A   1)  -0.01233517 +1   0.08776694 +1   0.13269970 +1
  C(HETATM    2  C2  HET A   1)   1.45641276 +1  -0.01879001 +1   0.04442013 +1
  C(HETATM    3  C3  HET A   1)   2.34446618 +1   1.15349255 +1   0.06680778 +1
  O(HETATM    4  O   HET A   1)   2.00114057 +1  -1.14055912 +1  -0.05977756 +1
  O(HETATM    5  O   HOH B   2)   4.85939599 +1  -1.02528114 +1  -0.80766370 +1
  H(HETATM    6 1H1  HET A   1)  -0.41973109 +1   1.05308819 +1  -0.22021378 +1
  H(HETATM    7 2H1  HET A   1)  -0.54953035 +1  -0.69840768 +1  -0.43732689 +1
  H(HETATM    8 3H1  HET A   1)  -0.36468763 +1  -0.02099840 +1   1.18098470 +1
  H(HETATM    9 1H3  HET A   1)   3.42581984 +1   0.89224950 +1   0.10410114 +1
  H(HETATM   10 2H3  HET A   1)   2.12425756 +1   1.83727359 +1   0.90409071 +1
  H(HETATM   11 1H   HOH B   2)   3.93889265 +1  -1.17293380 +1  -0.56049727 +1
  H(HETATM   12 2H   HOH B   2)   2.19810209 +1   1.79094851 +1  -0.83724067 +1
  H(HETATM   13 3H   HOH B   2)   4.93990465 +1  -1.53316517 +1  -1.62598508 +1
  H(HETATM   14  H   HET A   1)   1.25196606 +1  -2.19033365 +1  -0.04344727 +1
  O(HETATM   15  O   HOH J   3)   0.48122878 +1  -3.09053549 +1   0.00188248 +1
  H(HETATM   16 1H   HOH J   3)   0.93741225 +1  -3.76447061 +1   0.59906923 +1
  H(HETATM   17 2H   HOH J   3)   0.56602634 +1  -3.52783834 +1  -0.89605620 +1
 
 *+*+*+*+*+*+*+*+*+*+*+*+*+*+*+*+*+*+*+*+*+*+*+*+*+*+*+*+*+*+*+*+*+*+*+*+*+*+*+*+
            BAR SHORTENED BY       0.500 PERCENT
 GRADIENT CRITERION IN FLEPO =     9.126


          FOR POINT   32 FIRST  STRUCTURE
 DISTANCE A - B      8.454191
 HEAT              -87.539923
 GRADIENT NORM      13.754477
 DIRECTION COSINE    0.586877
 geo_ref="Acetone in enol form.arc" saddle eps=78.4 html charge=1 xyz bar=0.005
 Locating Keto-Enol transition state for acetone using SADDLE

  C(HETATM    1  C1  HET A   1)  -0.01961482 +1   0.09256565 +1   0.13078063 +1
  C(HETATM    2  C2  HET A   1)   1.44513176 +1  -0.01611233 +1   0.04241121 +1
  C(HETATM    3  C3  HET A   1)   2.33671881 +1   1.15549933 +1   0.06594934 +1
  O(HETATM    4  O   HET A   1)   1.99424706 +1  -1.13407391 +1  -0.06053033 +1
  O(HETATM    5  O   HOH B   2)   4.83826368 +1  -1.01926135 +1  -0.80746110 +1
  H(HETATM    6 1H1  HET A   1)  -0.42687772 +1   1.05823302 +1  -0.21529073 +1
  H(HETATM    7 2H1  HET A   1)  -0.55622292 +1  -0.69135454 +1  -0.43733305 +1
  H(HETATM    8 3H1  HET A   1)  -0.37527404 +1  -0.01907510 +1   1.18147122 +1
  H(HETATM    9 1H3  HET A   1)   3.42109121 +1   0.89079305 +1   0.10006600 +1
  H(HETATM   10 2H3  HET A   1)   2.12276265 +1   1.83990208 +1   0.90325455 +1
  H(HETATM   11 1H   HOH B   2)   3.92409003 +1  -1.16595800 +1  -0.55789910 +1
  H(HETATM   12 2H   HOH B   2)   2.18911495 +1   1.79389243 +1  -0.83143601 +1
  H(HETATM   13 3H   HOH B   2)   4.93242710 +1  -1.53306784 +1  -1.62114577 +1
  H(HETATM   14  H   HET A   1)   1.24226647 +1  -2.18369596 +1  -0.04562123 +1
  O(HETATM   15  O   HOH J   3)   0.47394727 +1  -3.08857272 +1   0.00626098 +1
  H(HETATM   16 1H   HOH J   3)   0.93196424 +1  -3.75851498 +1   0.59603057 +1
  H(HETATM   17 2H   HOH J   3)   0.55436505 +1  -3.52565375 +1  -0.89418796 +1
 
 *+*+*+*+*+*+*+*+*+*+*+*+*+*+*+*+*+*+*+*+*+*+*+*+*+*+*+*+*+*+*+*+*+*+*+*+*+*+*+*+
            BAR SHORTENED BY       0.500 PERCENT
 GRADIENT CRITERION IN FLEPO =    10.000


          FOR POINT   33 FIRST  STRUCTURE
 DISTANCE A - B      8.411921
 HEAT              -87.465872
 GRADIENT NORM       9.341595
 DIRECTION COSINE    0.372351
 geo_ref="Acetone in enol form.arc" saddle eps=78.4 html charge=1 xyz bar=0.005
 Locating Keto-Enol transition state for acetone using SADDLE

  C(HETATM    1  C1  HET A   1)  -0.03019665 +1   0.09552187 +1   0.13658481 +1
  C(HETATM    2  C2  HET A   1)   1.43521462 +1  -0.01048910 +1   0.04363502 +1
  C(HETATM    3  C3  HET A   1)   2.33082284 +1   1.15891663 +1   0.06222747 +1
  O(HETATM    4  O   HET A   1)   1.98537030 +1  -1.13043386 +1  -0.05839143 +1
  O(HETATM    5  O   HOH B   2)   4.82801404 +1  -1.01155383 +1  -0.80499202 +1
  H(HETATM    6 1H1  HET A   1)  -0.43390788 +1   1.06476791 +1  -0.20831609 +1
  H(HETATM    7 2H1  HET A   1)  -0.56493929 +1  -0.68537404 +1  -0.44443456 +1
  H(HETATM    8 3H1  HET A   1)  -0.38269083 +1  -0.01747438 +1   1.18322283 +1
  H(HETATM    9 1H3  HET A   1)   3.40290148 +1   0.89273652 +1   0.09553427 +1
  H(HETATM   10 2H3  HET A   1)   2.12540671 +1   1.84267611 +1   0.90589096 +1
  H(HETATM   11 1H   HOH B   2)   3.90876819 +1  -1.15656900 +1  -0.55393934 +1
  H(HETATM   12 2H   HOH B   2)   2.17763086 +1   1.80055305 +1  -0.82942760 +1
  H(HETATM   13 3H   HOH B   2)   4.92663688 +1  -1.53487956 +1  -1.61389267 +1
  H(HETATM   14  H   HET A   1)   1.23307994 +1  -2.17939988 +1  -0.02322496 +1
  O(HETATM   15  O   HOH J   3)   0.46278800 +1  -3.08341437 +1   0.01059677 +1
  H(HETATM   16 1H   HOH J   3)   0.92993634 +1  -3.75505377 +1   0.59714991 +1
  H(HETATM   17 2H   HOH J   3)   0.53651473 +1  -3.51674078 +1  -0.89181457 +1
 
 TIME=     0.20
  REACTANTS AND PRODUCTS SWAPPED AROUND
 *+*+*+*+*+*+*+*+*+*+*+*+*+*+*+*+*+*+*+*+*+*+*+*+*+*+*+*+*+*+*+*+*+*+*+*+*+*+*+*+
            BAR SHORTENED BY       0.000 PERCENT
 GRADIENT CRITERION IN FLEPO =     6.342


          FOR POINT   34 SECOND STRUCTURE
 DISTANCE A - B      8.411921
 HEAT              -72.658404
 GRADIENT NORM       3.504159
 DIRECTION COSINE   -0.098670
 geo_ref="Acetone in enol form.arc" saddle eps=78.4 html charge=1 xyz bar=0.005
 Locating Keto-Enol transition state for acetone using SADDLE

  C(HETATM    1  C1  HET A   1)  -1.87731674 +1   0.69280422 +1   0.12272335 +1
  C(HETATM    2  C2  HET A   1)  -0.42384906 +1   0.90228794 +1   0.02548509 +1
  C(HETATM    3  C3  HET A   1)   0.33368260 +1   1.93651251 +1   0.37636324 +1
  O(HETATM    4  O   HET A   1)   0.18746811 +1  -0.19421182 +1  -0.60351223 +1
  O(HETATM    5  O   HOH B   2)   2.66317352 +1  -0.17924860 +1  -0.28938067 +1
  H(HETATM    6 1H1  HET A   1)  -2.41162795 +1   1.62319602 +1   0.38587698 +1
  H(HETATM    7 2H1  HET A   1)  -2.31312304 +1   0.33329756 +1  -0.82783651 +1
  H(HETATM    8 3H1  HET A   1)  -2.14277190 +1  -0.05346804 +1   0.89283937 +1
  H(HETATM    9 1H3  HET A   1)   3.02673666 +1   0.12077440 +1  -1.15906091 +1
  H(HETATM   10 2H3  HET A   1)   1.40756100 +1   1.97149325 +1   0.26890189 +1
  H(HETATM   11 1H   HOH B   2)   1.31812779 +1  -0.19294517 +1  -0.47773896 +1
  H(HETATM   12 2H   HOH B   2)  -0.06436213 +1   2.84763631 +1   0.79947434 +1
  H(HETATM   13 3H   HOH B   2)   2.94987295 +1  -1.12597281 +1  -0.24840769 +1
  H(HETATM   14  H   HET A   1)  -0.15441502 +1  -1.21846688 +1  -0.10474633 +1
  O(HETATM   15  O   HOH J   3)  -0.52601971 +1  -2.30413728 +1   0.49176512 +1
  H(HETATM   16 1H   HOH J   3)   0.21812213 +1  -2.95073113 +1   0.35952797 +1
  H(HETATM   17 2H   HOH J   3)  -1.23461349 +1  -2.68329110 +1  -0.09529786 +1
 
 TIME=     0.03
  REACTANTS AND PRODUCTS SWAPPED AROUND
 *+*+*+*+*+*+*+*+*+*+*+*+*+*+*+*+*+*+*+*+*+*+*+*+*+*+*+*+*+*+*+*+*+*+*+*+*+*+*+*+
            BAR SHORTENED BY       0.500 PERCENT
 GRADIENT CRITERION IN FLEPO =     6.342


          FOR POINT   35 FIRST  STRUCTURE
 DISTANCE A - B      8.369861
 HEAT              -87.552393
 GRADIENT NORM       9.386323
 DIRECTION COSINE    0.122432
 geo_ref="Acetone in enol form.arc" saddle eps=78.4 html charge=1 xyz bar=0.005
 Locating Keto-Enol transition state for acetone using SADDLE

  C(HETATM    1  C1  HET A   1)  -0.03927393 +1   0.10148155 +1   0.13549534 +1
  C(HETATM    2  C2  HET A   1)   1.42590595 +1  -0.00568279 +1   0.04443897 +1
  C(HETATM    3  C3  HET A   1)   2.32168146 +1   1.16258155 +1   0.06145796 +1
  O(HETATM    4  O   HET A   1)   1.97134735 +1  -1.12643102 +1  -0.05735092 +1
  O(HETATM    5  O   HOH B   2)   4.81538505 +1  -1.00757804 +1  -0.80269173 +1
  H(HETATM    6 1H1  HET A   1)  -0.43781353 +1   1.07300475 +1  -0.20362225 +1
  H(HETATM    7 2H1  HET A   1)  -0.57128823 +1  -0.67746010 +1  -0.44390620 +1
  H(HETATM    8 3H1  HET A   1)  -0.39228709 +1  -0.01860000 +1   1.18314106 +1
  H(HETATM    9 1H3  HET A   1)   3.39617561 +1   0.89566560 +1   0.08948615 +1
  H(HETATM   10 2H3  HET A   1)   2.12086570 +1   1.84459012 +1   0.90830203 +1
  H(HETATM   11 1H   HOH B   2)   3.89608744 +1  -1.15058274 +1  -0.53652493 +1
  H(HETATM   12 2H   HOH B   2)   2.16738235 +1   1.80781316 +1  -0.83231694 +1
  H(HETATM   13 3H   HOH B   2)   4.91769121 +1  -1.53240616 +1  -1.60651004 +1
  H(HETATM   14  H   HET A   1)   1.22126056 +1  -2.17542809 +1  -0.03127290 +1
  O(HETATM   15  O   HOH J   3)   0.45258392 +1  -3.07895594 +1   0.01596671 +1
  H(HETATM   16 1H   HOH J   3)   0.91567512 +1  -3.75081150 +1   0.60130715 +1
  H(HETATM   17 2H   HOH J   3)   0.52523936 +1  -3.51148081 +1  -0.88959338 +1
 
 *+*+*+*+*+*+*+*+*+*+*+*+*+*+*+*+*+*+*+*+*+*+*+*+*+*+*+*+*+*+*+*+*+*+*+*+*+*+*+*+
            BAR SHORTENED BY       0.500 PERCENT
 GRADIENT CRITERION IN FLEPO =     6.386


          FOR POINT   36 FIRST  STRUCTURE
 DISTANCE A - B      8.328012
 HEAT              -87.474509
 GRADIENT NORM       9.840520
 DIRECTION COSINE    0.196795
 geo_ref="Acetone in enol form.arc" saddle eps=78.4 html charge=1 xyz bar=0.005
 Locating Keto-Enol transition state for acetone using SADDLE

  C(HETATM    1  C1  HET A   1)  -0.04805555 +1   0.10509056 +1   0.13595953 +1
  C(HETATM    2  C2  HET A   1)   1.41649035 +1  -0.00059354 +1   0.04473514 +1
  C(HETATM    3  C3  HET A   1)   2.31332283 +1   1.17657226 +1   0.05853232 +1
  O(HETATM    4  O   HET A   1)   1.96326004 +1  -1.12250350 +1  -0.05644104 +1
  O(HETATM    5  O   HOH B   2)   4.80235875 +1  -1.00029231 +1  -0.79810116 +1
  H(HETATM    6 1H1  HET A   1)  -0.44890409 +1   1.07821962 +1  -0.20112478 +1
  H(HETATM    7 2H1  HET A   1)  -0.58076032 +1  -0.67248967 +1  -0.44625450 +1
  H(HETATM    8 3H1  HET A   1)  -0.40212128 +1  -0.01902678 +1   1.18307852 +1
  H(HETATM    9 1H3  HET A   1)   3.38812706 +1   0.91730012 +1   0.08278095 +1
  H(HETATM   10 2H3  HET A   1)   2.11625482 +1   1.84681186 +1   0.91267956 +1
  H(HETATM   11 1H   HOH B   2)   3.88550089 +1  -1.14527298 +1  -0.53835051 +1
  H(HETATM   12 2H   HOH B   2)   2.15954460 +1   1.81337207 +1  -0.83068698 +1
  H(HETATM   13 3H   HOH B   2)   4.90470481 +1  -1.53215773 +1  -1.59617211 +1
  H(HETATM   14  H   HET A   1)   1.21193293 +1  -2.17235962 +1  -0.03358585 +1
  O(HETATM   15  O   HOH J   3)   0.44220890 +1  -3.07474059 +1   0.01863974 +1
  H(HETATM   16 1H   HOH J   3)   0.91315697 +1  -3.74748987 +1   0.60146421 +1
  H(HETATM   17 2H   HOH J   3)   0.51034280 +1  -3.50337605 +1  -0.88594012 +1
 
 *+*+*+*+*+*+*+*+*+*+*+*+*+*+*+*+*+*+*+*+*+*+*+*+*+*+*+*+*+*+*+*+*+*+*+*+*+*+*+*+
            BAR SHORTENED BY       0.500 PERCENT
 GRADIENT CRITERION IN FLEPO =     6.841


          FOR POINT   37 FIRST  STRUCTURE
 DISTANCE A - B      8.286372
 HEAT              -87.531693
 GRADIENT NORM      10.192735
 DIRECTION COSINE   -0.245100
 geo_ref="Acetone in enol form.arc" saddle eps=78.4 html charge=1 xyz bar=0.005
 Locating Keto-Enol transition state for acetone using SADDLE

[...]
            BAR SHORTENED BY       0.500 PERCENT
 GRADIENT CRITERION IN FLEPO =     3.179


          FOR POINT 1301 FIRST  STRUCTURE
 DISTANCE A - B      0.040207
 HEAT              -62.207871
 GRADIENT NORM       8.396949
 DIRECTION COSINE   -0.782636
 geo_ref="Acetone in enol form.arc" saddle eps=78.4 html charge=1 xyz bar=0.005
 Locating Keto-Enol transition state for acetone using SADDLE

  C(HETATM    1  C1  HET A   1)  -1.69689397 +1   0.79390349 +1   0.01576374 +1
  C(HETATM    2  C2  HET A   1)  -0.23561711 +1   0.65617824 +1   0.11977560 +1
  C(HETATM    3  C3  HET A   1)   0.69284084 +1   1.66135715 +1   0.08051441 +1
  O(HETATM    4  O   HET A   1)   0.27494904 +1  -0.55370088 +1   0.26935843 +1
  O(HETATM    5  O   HOH B   2)   2.78894026 +1   0.00742774 +1  -0.34758768 +1
  H(HETATM    6 1H1  HET A   1)  -2.04158552 +1   1.83826389 +1   0.12792490 +1
  H(HETATM    7 2H1  HET A   1)  -2.09510066 +1   0.44082870 +1  -0.95413828 +1
  H(HETATM    8 3H1  HET A   1)  -2.22167993 +1   0.20524806 +1   0.79208030 +1
  H(HETATM    9 1H3  HET A   1)   1.99817759 +1   1.07391089 +1  -0.31659953 +1
  H(HETATM   10 2H3  HET A   1)   1.69265016 +1   1.65023015 +1   0.61936025 +1
  H(HETATM   11 1H   HOH B   2)   2.11911104 +1  -0.71768935 +1  -0.21733135 +1
  H(HETATM   12 2H   HOH B   2)   0.43449110 +1   2.67560655 +1  -0.19409196 +1
  H(HETATM   13 3H   HOH B   2)   3.10379021 +1  -0.11926379 +1  -1.27712084 +1
  H(HETATM   14  H   HET A   1)  -0.36040300 +1  -1.39059710 +1   0.37859855 +1
  O(HETATM   15  O   HOH J   3)  -0.95148173 +1  -2.73082444 +1   0.69091055 +1
  H(HETATM   16 1H   HOH J   3)  -0.16871181 +1  -3.28356775 +1   0.89990582 +1
  H(HETATM   17 2H   HOH J   3)  -1.27061426 +1  -3.10993322 +1  -0.15321715 +1
 
 TIME=     0.03
  REACTANTS AND PRODUCTS SWAPPED AROUND
 *+*+*+*+*+*+*+*+*+*+*+*+*+*+*+*+*+*+*+*+*+*+*+*+*+*+*+*+*+*+*+*+*+*+*+*+*+*+*+*+
            BAR SHORTENED BY       0.500 PERCENT
 GRADIENT CRITERION IN FLEPO =     5.397


          FOR POINT 1302 SECOND STRUCTURE
 DISTANCE A - B      0.040006
 HEAT              -61.898821
 GRADIENT NORM       6.182261
 DIRECTION COSINE   -0.785344
 geo_ref="Acetone in enol form.arc" saddle eps=78.4 html charge=1 xyz bar=0.005
 Locating Keto-Enol transition state for acetone using SADDLE

  C(HETATM    1  C1  HET A   1)  -1.70005574 +1   0.79395590 +1   0.01497187 +1
  C(HETATM    2  C2  HET A   1)  -0.23711975 +1   0.66035974 +1   0.11610141 +1
  C(HETATM    3  C3  HET A   1)   0.68475023 +1   1.66591614 +1   0.08889561 +1
  O(HETATM    4  O   HET A   1)   0.27583620 +1  -0.55302475 +1   0.26268071 +1
  O(HETATM    5  O   HOH B   2)   2.78509890 +1   0.01148739 +1  -0.34284069 +1
  H(HETATM    6 1H1  HET A   1)  -2.04241531 +1   1.83871039 +1   0.12983249 +1
  H(HETATM    7 2H1  HET A   1)  -2.10037347 +1   0.44334773 +1  -0.95331014 +1
  H(HETATM    8 3H1  HET A   1)  -2.21985941 +1   0.20436192 +1   0.79481360 +1
  H(HETATM    9 1H3  HET A   1)   2.02151475 +1   1.05376078 +1  -0.31663268 +1
  H(HETATM   10 2H3  HET A   1)   1.69115414 +1   1.64726711 +1   0.60789642 +1
  H(HETATM   11 1H   HOH B   2)   2.11274756 +1  -0.71870617 +1  -0.21442743 +1
  H(HETATM   12 2H   HOH B   2)   0.43186924 +1   2.68029725 +1  -0.19056052 +1
  H(HETATM   13 3H   HOH B   2)   3.10363045 +1  -0.11834117 +1  -1.27474299 +1
  H(HETATM   14  H   HET A   1)  -0.35898377 +1  -1.38751117 +1   0.37336919 +1
  O(HETATM   15  O   HOH J   3)  -0.94918881 +1  -2.73143165 +1   0.69112670 +1
  H(HETATM   16 1H   HOH J   3)  -0.16634495 +1  -3.28238616 +1   0.89799378 +1
  H(HETATM   17 2H   HOH J   3)  -1.26996735 +1  -3.11065851 +1  -0.15164137 +1
 
 TIME=     0.02
  REACTANTS AND PRODUCTS SWAPPED AROUND
 *+*+*+*+*+*+*+*+*+*+*+*+*+*+*+*+*+*+*+*+*+*+*+*+*+*+*+*+*+*+*+*+*+*+*+*+*+*+*+*+
            BAR SHORTENED BY       0.500 PERCENT
 GRADIENT CRITERION IN FLEPO =     3.182


          FOR POINT 1303 FIRST  STRUCTURE
 DISTANCE A - B      0.039806
 HEAT              -62.206234
 GRADIENT NORM       8.376850
 DIRECTION COSINE   -0.786800
 geo_ref="Acetone in enol form.arc" saddle eps=78.4 html charge=1 xyz bar=0.005
 Locating Keto-Enol transition state for acetone using SADDLE

  C(HETATM    1  C1  HET A   1)  -1.69690978 +1   0.79390376 +1   0.01575979 +1
  C(HETATM    2  C2  HET A   1)  -0.23562463 +1   0.65619914 +1   0.11975723 +1
  C(HETATM    3  C3  HET A   1)   0.69280038 +1   1.66137995 +1   0.08055631 +1
  O(HETATM    4  O   HET A   1)   0.27495348 +1  -0.55369750 +1   0.26932504 +1
  O(HETATM    5  O   HOH B   2)   2.78892106 +1   0.00744804 +1  -0.34756395 +1
  H(HETATM    6 1H1  HET A   1)  -2.04158967 +1   1.83826612 +1   0.12793444 +1
  H(HETATM    7 2H1  HET A   1)  -2.09512703 +1   0.44084130 +1  -0.95413414 +1
  H(HETATM    8 3H1  HET A   1)  -2.22167083 +1   0.20524363 +1   0.79209397 +1
  H(HETATM    9 1H3  HET A   1)   1.99829427 +1   1.07381014 +1  -0.31659969 +1
  H(HETATM   10 2H3  HET A   1)   1.69264268 +1   1.65021533 +1   0.61930293 +1
  H(HETATM   11 1H   HOH B   2)   2.11907923 +1  -0.71769444 +1  -0.21731683 +1
  H(HETATM   12 2H   HOH B   2)   0.43447799 +1   2.67563000 +1  -0.19407431 +1
  H(HETATM   13 3H   HOH B   2)   3.10378941 +1  -0.11925917 +1  -1.27710895 +1
  H(HETATM   14  H   HET A   1)  -0.36039590 +1  -1.39058167 +1   0.37857240 +1
  O(HETATM   15  O   HOH J   3)  -0.95147027 +1  -2.73082748 +1   0.69091163 +1
  H(HETATM   16 1H   HOH J   3)  -0.16869998 +1  -3.28356184 +1   0.89989626 +1
  H(HETATM   17 2H   HOH J   3)  -1.27061103 +1  -3.10993685 +1  -0.15320927 +1
 
 TIME=     0.03
  REACTANTS AND PRODUCTS SWAPPED AROUND
 *+*+*+*+*+*+*+*+*+*+*+*+*+*+*+*+*+*+*+*+*+*+*+*+*+*+*+*+*+*+*+*+*+*+*+*+*+*+*+*+
            BAR SHORTENED BY       0.500 PERCENT
 GRADIENT CRITERION IN FLEPO =     5.377


          FOR POINT 1304 SECOND STRUCTURE
 DISTANCE A - B      0.039607
 HEAT              -61.899697
 GRADIENT NORM       6.185344
 DIRECTION COSINE   -0.789456
 geo_ref="Acetone in enol form.arc" saddle eps=78.4 html charge=1 xyz bar=0.005
 Locating Keto-Enol transition state for acetone using SADDLE

  C(HETATM    1  C1  HET A   1)  -1.70004001 +1   0.79395564 +1   0.01497581 +1
  C(HETATM    2  C2  HET A   1)  -0.23711228 +1   0.66033894 +1   0.11611969 +1
  C(HETATM    3  C3  HET A   1)   0.68479048 +1   1.66589345 +1   0.08885391 +1
  O(HETATM    4  O   HET A   1)   0.27583178 +1  -0.55302812 +1   0.26271393 +1
  O(HETATM    5  O   HOH B   2)   2.78511801 +1   0.01146719 +1  -0.34286431 +1
  H(HETATM    6 1H1  HET A   1)  -2.04241118 +1   1.83870817 +1   0.12982300 +1
  H(HETATM    7 2H1  HET A   1)  -2.10034724 +1   0.44333520 +1  -0.95331426 +1
  H(HETATM    8 3H1  HET A   1)  -2.21986847 +1   0.20436632 +1   0.79480000 +1
  H(HETATM    9 1H3  HET A   1)   2.02139864 +1   1.05386103 +1  -0.31663251 +1
  H(HETATM   10 2H3  HET A   1)   1.69116158 +1   1.64728185 +1   0.60795346 +1
  H(HETATM   11 1H   HOH B   2)   2.11277922 +1  -0.71870111 +1  -0.21444187 +1
  H(HETATM   12 2H   HOH B   2)   0.43188229 +1   2.68027392 +1  -0.19057809 +1
  H(HETATM   13 3H   HOH B   2)   3.10363124 +1  -0.11834576 +1  -1.27475482 +1
  H(HETATM   14  H   HET A   1)  -0.35899083 +1  -1.38752653 +1   0.37339521 +1
  O(HETATM   15  O   HOH J   3)  -0.94920021 +1  -2.73142863 +1   0.69112563 +1
  H(HETATM   16 1H   HOH J   3)  -0.16635673 +1  -3.28239204 +1   0.89800329 +1
  H(HETATM   17 2H   HOH J   3)  -1.26997057 +1  -3.11065490 +1  -0.15164921 +1
 
 TIME=     0.03
  REACTANTS AND PRODUCTS SWAPPED AROUND
 *+*+*+*+*+*+*+*+*+*+*+*+*+*+*+*+*+*+*+*+*+*+*+*+*+*+*+*+*+*+*+*+*+*+*+*+*+*+*+*+
            BAR SHORTENED BY       0.500 PERCENT
 GRADIENT CRITERION IN FLEPO =     3.185


          FOR POINT 1305 FIRST  STRUCTURE
 DISTANCE A - B      0.039409
 HEAT              -62.205447
 GRADIENT NORM       8.358636
 DIRECTION COSINE   -0.790790
 geo_ref="Acetone in enol form.arc" saddle eps=78.4 html charge=1 xyz bar=0.005
 Locating Keto-Enol transition state for acetone using SADDLE

  C(HETATM    1  C1  HET A   1)  -1.69692543 +1   0.79390402 +1   0.01575587 +1
  C(HETATM    2  C2  HET A   1)  -0.23563206 +1   0.65621984 +1   0.11973904 +1
  C(HETATM    3  C3  HET A   1)   0.69276033 +1   1.66140251 +1   0.08059780 +1
  O(HETATM    4  O   HET A   1)   0.27495787 +1  -0.55369415 +1   0.26929199 +1
  O(HETATM    5  O   HOH B   2)   2.78890204 +1   0.00746813 +1  -0.34754045 +1
  H(HETATM    6 1H1  HET A   1)  -2.04159378 +1   1.83826833 +1   0.12794388 +1
  H(HETATM    7 2H1  HET A   1)  -2.09515313 +1   0.44085377 +1  -0.95413004 +1
  H(HETATM    8 3H1  HET A   1)  -2.22166182 +1   0.20523924 +1   0.79210750 +1
  H(HETATM    9 1H3  HET A   1)   1.99840979 +1   1.07371039 +1  -0.31659986 +1
  H(HETATM   10 2H3  HET A   1)   1.69263528 +1   1.65020067 +1   0.61924618 +1
  H(HETATM   11 1H   HOH B   2)   2.11904773 +1  -0.71769947 +1  -0.21730246 +1
  H(HETATM   12 2H   HOH B   2)   0.43446501 +1   2.67565322 +1  -0.19405683 +1
  H(HETATM   13 3H   HOH B   2)   3.10378862 +1  -0.11925461 +1  -1.27709718 +1
  H(HETATM   14  H   HET A   1)  -0.36038888 +1  -1.39056639 +1   0.37854651 +1
  O(HETATM   15  O   HOH J   3)  -0.95145892 +1  -2.73083048 +1   0.69091270 +1
  H(HETATM   16 1H   HOH J   3)  -0.16868826 +1  -3.28355599 +1   0.89988679 +1
  H(HETATM   17 2H   HOH J   3)  -1.27060783 +1  -3.10994044 +1  -0.15320147 +1
 
 TIME=     0.03
  REACTANTS AND PRODUCTS SWAPPED AROUND
 *+*+*+*+*+*+*+*+*+*+*+*+*+*+*+*+*+*+*+*+*+*+*+*+*+*+*+*+*+*+*+*+*+*+*+*+*+*+*+*+
            BAR SHORTENED BY       0.500 PERCENT
 GRADIENT CRITERION IN FLEPO =     5.359


          FOR POINT 1306 SECOND STRUCTURE
 DISTANCE A - B      0.039212
 HEAT              -61.900442
 GRADIENT NORM       6.187843
 DIRECTION COSINE   -0.793194
 geo_ref="Acetone in enol form.arc" saddle eps=78.4 html charge=1 xyz bar=0.005
 Locating Keto-Enol transition state for acetone using SADDLE

  C(HETATM    1  C1  HET A   1)  -1.70002444 +1   0.79395538 +1   0.01497971 +1
  C(HETATM    2  C2  HET A   1)  -0.23710488 +1   0.66031834 +1   0.11613779 +1
  C(HETATM    3  C3  HET A   1)   0.68483033 +1   1.66587100 +1   0.08881263 +1
  O(HETATM    4  O   HET A   1)   0.27582741 +1  -0.55303145 +1   0.26274682 +1
  O(HETATM    5  O   HOH B   2)   2.78513693 +1   0.01144719 +1  -0.34288769 +1
  H(HETATM    6 1H1  HET A   1)  -2.04240709 +1   1.83870597 +1   0.12981360 +1
  H(HETATM    7 2H1  HET A   1)  -2.10032127 +1   0.44332279 +1  -0.95331833 +1
  H(HETATM    8 3H1  HET A   1)  -2.21987743 +1   0.20437069 +1   0.79478654 +1
  H(HETATM    9 1H3  HET A   1)   2.02128370 +1   1.05396028 +1  -0.31663235 +1
  H(HETATM   10 2H3  HET A   1)   1.69116895 +1   1.64729644 +1   0.60800992 +1
  H(HETATM   11 1H   HOH B   2)   2.11281056 +1  -0.71869610 +1  -0.21445618 +1
  H(HETATM   12 2H   HOH B   2)   0.43189520 +1   2.68025081 +1  -0.19059548 +1
  H(HETATM   13 3H   HOH B   2)   3.10363203 +1  -0.11835030 +1  -1.27476653 +1
  H(HETATM   14  H   HET A   1)  -0.35899782 +1  -1.38754173 +1   0.37342096 +1
  O(HETATM   15  O   HOH J   3)  -0.94921151 +1  -2.73142564 +1   0.69112456 +1
  H(HETATM   16 1H   HOH J   3)  -0.16636838 +1  -3.28239786 +1   0.89801271 +1
  H(HETATM   17 2H   HOH J   3)  -1.26997375 +1  -3.11065133 +1  -0.15165697 +1
 
 TIME=     0.02
  REACTANTS AND PRODUCTS SWAPPED AROUND
 *+*+*+*+*+*+*+*+*+*+*+*+*+*+*+*+*+*+*+*+*+*+*+*+*+*+*+*+*+*+*+*+*+*+*+*+*+*+*+*+
            BAR SHORTENED BY       0.500 PERCENT
 GRADIENT CRITERION IN FLEPO =     3.188


          FOR POINT 1307 FIRST  STRUCTURE
 DISTANCE A - B      0.039016
 HEAT              -62.203851
 GRADIENT NORM       8.339062
 DIRECTION COSINE   -0.794609
 geo_ref="Acetone in enol form.arc" saddle eps=78.4 html charge=1 xyz bar=0.005
 Locating Keto-Enol transition state for acetone using SADDLE

  C(HETATM    1  C1  HET A   1)  -1.69694093 +1   0.79390427 +1   0.01575198 +1
  C(HETATM    2  C2  HET A   1)  -0.23563943 +1   0.65624034 +1   0.11972103 +1
  C(HETATM    3  C3  HET A   1)   0.69272068 +1   1.66142486 +1   0.08063887 +1
  O(HETATM    4  O   HET A   1)   0.27496222 +1  -0.55369084 +1   0.26925926 +1
  O(HETATM    5  O   HOH B   2)   2.78888322 +1   0.00748803 +1  -0.34751718 +1
  H(HETATM    6 1H1  HET A   1)  -2.04159784 +1   1.83827052 +1   0.12795323 +1
  H(HETATM    7 2H1  HET A   1)  -2.09517897 +1   0.44086611 +1  -0.95412598 +1
  H(HETATM    8 3H1  HET A   1)  -2.22165290 +1   0.20523490 +1   0.79212089 +1
  H(HETATM    9 1H3  HET A   1)   1.99852416 +1   1.07361164 +1  -0.31660002 +1
  H(HETATM   10 2H3  HET A   1)   1.69262795 +1   1.65018615 +1   0.61919000 +1
  H(HETATM   11 1H   HOH B   2)   2.11901654 +1  -0.71770445 +1  -0.21728823 +1
  H(HETATM   12 2H   HOH B   2)   0.43445217 +1   2.67567621 +1  -0.19403952 +1
  H(HETATM   13 3H   HOH B   2)   3.10378783 +1  -0.11925009 +1  -1.27708553 +1
  H(HETATM   14  H   HET A   1)  -0.36038192 +1  -1.39055127 +1   0.37852088 +1
  O(HETATM   15  O   HOH J   3)  -0.95144768 +1  -2.73083346 +1   0.69091376 +1
  H(HETATM   16 1H   HOH J   3)  -0.16867666 +1  -3.28355020 +1   0.89987742 +1
  H(HETATM   17 2H   HOH J   3)  -1.27060466 +1  -3.10994399 +1  -0.15319375 +1
 
 TIME=     0.03
  REACTANTS AND PRODUCTS SWAPPED AROUND
 *+*+*+*+*+*+*+*+*+*+*+*+*+*+*+*+*+*+*+*+*+*+*+*+*+*+*+*+*+*+*+*+*+*+*+*+*+*+*+*+
            BAR SHORTENED BY       0.500 PERCENT
 GRADIENT CRITERION IN FLEPO =     5.339


          FOR POINT 1308 SECOND STRUCTURE
 DISTANCE A - B      0.038820
 HEAT              -61.893969
 GRADIENT NORM       6.200426
 DIRECTION COSINE   -0.798031
 geo_ref="Acetone in enol form.arc" saddle eps=78.4 html charge=1 xyz bar=0.005
 Locating Keto-Enol transition state for acetone using SADDLE

  C(HETATM    1  C1  HET A   1)  -1.70000902 +1   0.79395513 +1   0.01498357 +1
  C(HETATM    2  C2  HET A   1)  -0.23709755 +1   0.66029795 +1   0.11615570 +1
  C(HETATM    3  C3  HET A   1)   0.68486978 +1   1.66584877 +1   0.08877176 +1
  O(HETATM    4  O   HET A   1)   0.27582309 +1  -0.55303474 +1   0.26277938 +1
  O(HETATM    5  O   HOH B   2)   2.78515566 +1   0.01142740 +1  -0.34291084 +1
  H(HETATM    6 1H1  HET A   1)  -2.04240305 +1   1.83870380 +1   0.12980430 +1
  H(HETATM    7 2H1  HET A   1)  -2.10029556 +1   0.44331051 +1  -0.95332237 +1
  H(HETATM    8 3H1  HET A   1)  -2.21988631 +1   0.20437501 +1   0.79477321 +1
  H(HETATM    9 1H3  HET A   1)   2.02116990 +1   1.05405854 +1  -0.31663219 +1
  H(HETATM   10 2H3  HET A   1)   1.69117624 +1   1.64731089 +1   0.60806582 +1
  H(HETATM   11 1H   HOH B   2)   2.11284159 +1  -0.71869114 +1  -0.21447034 +1
  H(HETATM   12 2H   HOH B   2)   0.43190798 +1   2.68022794 +1  -0.19061270 +1
  H(HETATM   13 3H   HOH B   2)   3.10363281 +1  -0.11835480 +1  -1.27477812 +1
  H(HETATM   14  H   HET A   1)  -0.35900474 +1  -1.38755677 +1   0.37344646 +1
  O(HETATM   15  O   HOH J   3)  -0.94922269 +1  -2.73142268 +1   0.69112351 +1
  H(HETATM   16 1H   HOH J   3)  -0.16637993 +1  -3.28240362 +1   0.89802203 +1
  H(HETATM   17 2H   HOH J   3)  -1.26997691 +1  -3.11064779 +1  -0.15166466 +1
 
 TIME=     0.03
  REACTANTS AND PRODUCTS SWAPPED AROUND
 *+*+*+*+*+*+*+*+*+*+*+*+*+*+*+*+*+*+*+*+*+*+*+*+*+*+*+*+*+*+*+*+*+*+*+*+*+*+*+*+
            BAR SHORTENED BY       0.500 PERCENT
 GRADIENT CRITERION IN FLEPO =     3.200


          FOR POINT 1309 FIRST  STRUCTURE
 DISTANCE A - B      0.038626
 HEAT              -62.202274
 GRADIENT NORM       8.319680
 DIRECTION COSINE   -0.799426
 geo_ref="Acetone in enol form.arc" saddle eps=78.4 html charge=1 xyz bar=0.005
 Locating Keto-Enol transition state for acetone using SADDLE

  C(HETATM    1  C1  HET A   1)  -1.69695627 +1   0.79390453 +1   0.01574814 +1
  C(HETATM    2  C2  HET A   1)  -0.23564672 +1   0.65626062 +1   0.11970321 +1
  C(HETATM    3  C3  HET A   1)   0.69268143 +1   1.66144697 +1   0.08067954 +1
  O(HETATM    4  O   HET A   1)   0.27496652 +1  -0.55368756 +1   0.26922686 +1
  O(HETATM    5  O   HOH B   2)   2.78886458 +1   0.00750773 +1  -0.34749415 +1
  H(HETATM    6 1H1  HET A   1)  -2.04160187 +1   1.83827269 +1   0.12796248 +1
  H(HETATM    7 2H1  HET A   1)  -2.09520455 +1   0.44087834 +1  -0.95412196 +1
  H(HETATM    8 3H1  HET A   1)  -2.22164406 +1   0.20523060 +1   0.79213415 +1
  H(HETATM    9 1H3  HET A   1)   1.99863739 +1   1.07351388 +1  -0.31660018 +1
  H(HETATM   10 2H3  HET A   1)   1.69262069 +1   1.65017177 +1   0.61913438 +1
  H(HETATM   11 1H   HOH B   2)   2.11898567 +1  -0.71770938 +1  -0.21727414 +1
  H(HETATM   12 2H   HOH B   2)   0.43443944 +1   2.67569897 +1  -0.19402239 +1
  H(HETATM   13 3H   HOH B   2)   3.10378706 +1  -0.11924561 +1  -1.27707399 +1
  H(HETATM   14  H   HET A   1)  -0.36037504 +1  -1.39053630 +1   0.37849551 +1
  O(HETATM   15  O   HOH J   3)  -0.95143656 +1  -2.73083640 +1   0.69091481 +1
  H(HETATM   16 1H   HOH J   3)  -0.16866518 +1  -3.28354447 +1   0.89986814 +1
  H(HETATM   17 2H   HOH J   3)  -1.27060152 +1  -3.10994751 +1  -0.15318610 +1
 
 TIME=     0.03
  REACTANTS AND PRODUCTS SWAPPED AROUND
 *+*+*+*+*+*+*+*+*+*+*+*+*+*+*+*+*+*+*+*+*+*+*+*+*+*+*+*+*+*+*+*+*+*+*+*+*+*+*+*+
            BAR SHORTENED BY       0.500 PERCENT
 GRADIENT CRITERION IN FLEPO =     5.320


          FOR POINT 1310 SECOND STRUCTURE
 DISTANCE A - B      0.038433
 HEAT              -61.894829
 GRADIENT NORM       6.203893
 DIRECTION COSINE   -0.801941
 geo_ref="Acetone in enol form.arc" saddle eps=78.4 html charge=1 xyz bar=0.005
 Locating Keto-Enol transition state for acetone using SADDLE

  C(HETATM    1  C1  HET A   1)  -1.69999376 +1   0.79395488 +1   0.01498739 +1
  C(HETATM    2  C2  HET A   1)  -0.23709029 +1   0.66027777 +1   0.11617344 +1
  C(HETATM    3  C3  HET A   1)   0.68490884 +1   1.66582676 +1   0.08873130 +1
  O(HETATM    4  O   HET A   1)   0.27581880 +1  -0.55303801 +1   0.26281162 +1
  O(HETATM    5  O   HOH B   2)   2.78517420 +1   0.01140780 +1  -0.34293375 +1
  H(HETATM    6 1H1  HET A   1)  -2.04239904 +1   1.83870164 +1   0.12979509 +1
  H(HETATM    7 2H1  HET A   1)  -2.10027011 +1   0.44329834 +1  -0.95332637 +1
  H(HETATM    8 3H1  HET A   1)  -2.21989510 +1   0.20437929 +1   0.79476001 +1
  H(HETATM    9 1H3  HET A   1)   2.02105724 +1   1.05415581 +1  -0.31663203 +1
  H(HETATM   10 2H3  HET A   1)   1.69118346 +1   1.64732519 +1   0.60812116 +1
  H(HETATM   11 1H   HOH B   2)   2.11287231 +1  -0.71868623 +1  -0.21448435 +1
  H(HETATM   12 2H   HOH B   2)   0.43192064 +1   2.68020529 +1  -0.19062975 +1
  H(HETATM   13 3H   HOH B   2)   3.10363358 +1  -0.11835925 +1  -1.27478960 +1
  H(HETATM   14  H   HET A   1)  -0.35901159 +1  -1.38757167 +1   0.37347171 +1
  O(HETATM   15  O   HOH J   3)  -0.94923376 +1  -2.73141975 +1   0.69112246 +1
  H(HETATM   16 1H   HOH J   3)  -0.16639135 +1  -3.28240933 +1   0.89803127 +1
  H(HETATM   17 2H   HOH J   3)  -1.26998003 +1  -3.11064429 +1  -0.15167226 +1
 

          BOTH SYSTEMS ARE ON THE SAME SIDE OF THE TRANSITION STATE.

 ******************************************************************************
 *                                                                            *
 *     Error and normal termination messages reported in this calculation     *
 *                                                                            *
 * BOTH SYSTEMS ARE ON THE SAME SIDE OF THE TRANSITION STATE.                 *
 * JOB ENDED NORMALLY                                                         *
 *                                                                            *
 ******************************************************************************



 TOTAL JOB TIME:            78.18 SECONDS

 == MOPAC DONE ==
