 *******************************************************************************
 ** Cite this program as: MOPAC2016, Version: 22.066W, James J. P. Stewart,   **
 **                           web-site: HTTP://OpenMOPAC.net.                 **
 *******************************************************************************
 **                                                                           **
 **                                MOPAC2016                                  **
 **                                                                           **
 *******************************************************************************

                              PM3 CALCULATION RESULTS

 *******************************************************************************
 *  CALCULATION DONE:                                Mon May  2 11:54:45 2022  *
 *  PM3        - The PM3 Hamiltonian to be used
 *
 *
 *
 *                 CHARGE ON SYSTEM = 0
 *
 *
 *
 *  XYZ        - CARTESIAN COORDINATE SYSTEM TO BE USED
 *  EF         - USE EF ROUTINE FOR MINIMUM SEARCH
 *  T=         - A TIME OF 172800.0 SECONDS REQUESTED
 *  DUMP=N     - RESTART FILE WRITTEN EVERY 7200.0 SECONDS REQUESTED
 *  VECTORS    - FINAL EIGENVECTORS TO BE PRINTED
 *******************************************************************************
PM3 CHARGE=0 EF XYZ VECTORS
 2-Ethoxynaphthalene

   ATOM     CHEMICAL       X               Y               Z
  NUMBER     SYMBOL   (ANGSTROMS)     (ANGSTROMS)     (ANGSTROMS)
 
     1       C(01)      0.00000000  *   0.00000000  *   0.00000000  *
     2       C(02)      1.39793100  *   0.00000000  *   0.00000000  *
     3       C(03)      2.12734333  *   1.20039640  *   0.00000000  *
     4       C(04)      1.43140575  *   2.42913917  *  -0.01029456  *
     5       C(05)      0.02821296  *   2.41913630  *  -0.02485623  *
     6       C(06)     -0.68272498  *   1.21394581  *  -0.02050486  *
     7       O(07)     -0.57158687  *  -1.24282383  *   0.01323883  *
     8       C(08)     -1.98211684  *  -1.30303212  *   0.21754123  *
     9       C(09)     -2.37377601  *  -2.76409054  *   0.34721505  *
    10       H(10)     -2.50692307  *  -0.86484235  *  -0.63893515  *
    11       H(11)     -2.25947007  *  -0.77721799  *   1.13875988  *
    12       H(12)     -1.76611940  *   1.26143352  *  -0.03763779  *
    13       C(13)      2.15815514  *   3.63095032  *  -0.00511034  *
    14       H(14)     -0.52601467  *   3.35509195  *  -0.03897670  *
    15       H(15)      1.91952525  *  -0.95469542  *   0.00851667  *
    16       C(16)      3.53173875  *   1.20643184  *   0.01378074  *
    17       H(17)     -2.10475608  *  -3.31732539  *  -0.55865943  *
    18       H(18)     -3.44926711  *  -2.86593836  *   0.51715808  *
    19       H(19)     -1.83813658  *  -3.23424818  *   1.17871187  *
    20       C(20)      4.23991091  *   2.40914869  *   0.02057358  *
    21       C(21)      3.55386863  *   3.62008953  *   0.01156821  *
    22       H(22)      4.08444282  *   0.26956718  *   0.02176758  *
    23       H(23)      5.32659220  *   2.39875379  *   0.03375925  *
    24       H(24)      1.63983745  *   4.58706510  *  -0.01201563  *
    25       H(25)      4.10414919  *   4.55726788  *   0.01786752  *
 


          CARTESIAN COORDINATES 

    NO.       ATOM           X           Y           Z

     1         C          0.0000      0.0000      0.0000
     2         C          1.3979      0.0000      0.0000
     3         C          2.1273      1.2004      0.0000
     4         C          1.4314      2.4291     -0.0103
     5         C          0.0282      2.4191     -0.0249
     6         C         -0.6827      1.2139     -0.0205
     7         O         -0.5716     -1.2428      0.0132
     8         C         -1.9821     -1.3030      0.2175
     9         C         -2.3738     -2.7641      0.3472
    10         H         -2.5069     -0.8648     -0.6389
    11         H         -2.2595     -0.7772      1.1388
    12         H         -1.7661      1.2614     -0.0376
    13         C          2.1582      3.6310     -0.0051
    14         H         -0.5260      3.3551     -0.0390
    15         H          1.9195     -0.9547      0.0085
    16         C          3.5317      1.2064      0.0138
    17         H         -2.1048     -3.3173     -0.5587
    18         H         -3.4493     -2.8659      0.5172
    19         H         -1.8381     -3.2342      1.1787
    20         C          4.2399      2.4091      0.0206
    21         C          3.5539      3.6201      0.0116
    22         H          4.0844      0.2696      0.0218
    23         H          5.3266      2.3988      0.0338
    24         H          1.6398      4.5871     -0.0120
    25         H          4.1041      4.5573      0.0179

  H: (PM3): J. J. P. STEWART, J. COMP. CHEM. 10, 209 (1989).
  C: (PM3): J. J. P. STEWART, J. COMP. CHEM. 10, 209 (1989).
  O: (PM3): J. J. P. STEWART, J. COMP. CHEM. 10, 209 (1989).

           Empirical Formula: C12 H12 O  =    25 atoms



      MOLECULAR POINT GROUP   :   C1  


      RHF CALCULATION, NO. OF DOUBLY OCCUPIED LEVELS = 33


          Geometry optimization using EF

          DIAGONAL MATRIX USED AS START HESSIAN

 CYCLE:     1 TIME:   0.020 TIME LEFT:  2.00D  GRAD.:   119.917 HEAT:  1.985793
 CYCLE:     2 TIME:   0.047 TIME LEFT:  2.00D  GRAD.:    34.157 HEAT:-0.6869704
 CYCLE:     3 TIME:   0.020 TIME LEFT:  2.00D  GRAD.:    30.659 HEAT:-0.9643749
 CYCLE:     4 TIME:   0.012 TIME LEFT:  2.00D  GRAD.:    19.017 HEAT: -1.249973
 CYCLE:     5 TIME:   0.016 TIME LEFT:  2.00D  GRAD.:    16.303 HEAT: -1.329776
 CYCLE:     6 TIME:   0.008 TIME LEFT:  2.00D  GRAD.:    16.001 HEAT: -1.398011
 CYCLE:     7 TIME:   0.020 TIME LEFT:  2.00D  GRAD.:     9.440 HEAT: -1.444864
 CYCLE:     8 TIME:   0.020 TIME LEFT:  2.00D  GRAD.:     7.201 HEAT: -1.463752
 CYCLE:     9 TIME:   0.012 TIME LEFT:  2.00D  GRAD.:     6.874 HEAT: -1.475714
 CYCLE:    10 TIME:   0.012 TIME LEFT:  2.00D  GRAD.:     5.755 HEAT: -1.489113
 CYCLE:    11 TIME:   0.012 TIME LEFT:  2.00D  GRAD.:     8.329 HEAT: -1.493903
 CYCLE:    12 TIME:   0.016 TIME LEFT:  2.00D  GRAD.:     5.179 HEAT: -1.505446
 CYCLE:    13 TIME:   0.008 TIME LEFT:  2.00D  GRAD.:     5.712 HEAT: -1.506269
 CYCLE:    14 TIME:   0.008 TIME LEFT:  2.00D  GRAD.:     6.165 HEAT: -1.509762
 CYCLE:    15 TIME:   0.012 TIME LEFT:  2.00D  GRAD.:     5.505 HEAT: -1.512193
 CYCLE:    16 TIME:   0.020 TIME LEFT:  2.00D  GRAD.:     2.543 HEAT: -1.517884
 CYCLE:    17 TIME:   0.008 TIME LEFT:  2.00D  GRAD.:     3.748 HEAT: -1.518501
 CYCLE:    18 TIME:   0.008 TIME LEFT:  2.00D  GRAD.:     8.517 HEAT: -1.513881
 CYCLE:    19 TIME:   0.020 TIME LEFT:  2.00D  GRAD.:     7.569 HEAT: -1.516295
 CYCLE:    20 TIME:   0.016 TIME LEFT:  2.00D  GRAD.:     8.008 HEAT: -1.517550
 CYCLE:    21 TIME:   0.023 TIME LEFT:  2.00D  GRAD.:     3.085 HEAT: -1.528912
 CYCLE:    22 TIME:   0.012 TIME LEFT:  2.00D  GRAD.:     6.603 HEAT: -1.520697
 CYCLE:    23 TIME:   0.008 TIME LEFT:  2.00D  GRAD.:     5.478 HEAT: -1.526272
 CYCLE:    24 TIME:   0.027 TIME LEFT:  2.00D  GRAD.:     1.540 HEAT: -1.531708
 CYCLE:    25 TIME:   0.008 TIME LEFT:  2.00D  GRAD.:     5.825 HEAT: -1.525211
 CYCLE:    26 TIME:   0.008 TIME LEFT:  2.00D  GRAD.:     1.861 HEAT: -1.531856
 CYCLE:    27 TIME:   0.016 TIME LEFT:  2.00D  GRAD.:     4.271 HEAT: -1.527999
 CYCLE:    28 TIME:   0.012 TIME LEFT:  2.00D  GRAD.:     2.441 HEAT: -1.531223
 CYCLE:    29 TIME:   0.023 TIME LEFT:  2.00D  GRAD.:     2.554 HEAT: -1.531151
 CYCLE:    30 TIME:   0.004 TIME LEFT:  2.00D  GRAD.:     2.640 HEAT: -1.531145
 CYCLE:    31 TIME:   0.012 TIME LEFT:  2.00D  GRAD.:     3.664 HEAT: -1.528729
 CYCLE:    32 TIME:   0.012 TIME LEFT:  2.00D  GRAD.:     3.451 HEAT: -1.529117
 CYCLE:    33 TIME:   0.008 TIME LEFT:  2.00D  GRAD.:     4.906 HEAT: -1.525553
 CYCLE:    34 TIME:   0.016 TIME LEFT:  2.00D  GRAD.:     2.446 HEAT: -1.531697
 CYCLE:    35 TIME:   0.012 TIME LEFT:  2.00D  GRAD.:     3.780 HEAT: -1.528751
 CYCLE:    36 TIME:   0.012 TIME LEFT:  2.00D  GRAD.:     3.778 HEAT: -1.529958
 CYCLE:    37 TIME:   0.016 TIME LEFT:  2.00D  GRAD.:     2.725 HEAT: -1.531458
 CYCLE:    38 TIME:   0.012 TIME LEFT:  2.00D  GRAD.:     4.079 HEAT: -1.528132
 CYCLE:    39 TIME:   0.012 TIME LEFT:  2.00D  GRAD.:     4.126 HEAT: -1.528858
 CYCLE:    40 TIME:   0.016 TIME LEFT:  2.00D  GRAD.:     2.674 HEAT: -1.531591
 CYCLE:    41 TIME:   0.008 TIME LEFT:  2.00D  GRAD.:     4.327 HEAT: -1.526876
 CYCLE:    42 TIME:   0.012 TIME LEFT:  2.00D  GRAD.:     2.818 HEAT: -1.532041
 CYCLE:    43 TIME:   0.016 TIME LEFT:  2.00D  GRAD.:     3.009 HEAT: -1.531487
 CYCLE:    44 TIME:   0.012 TIME LEFT:  2.00D  GRAD.:     2.025 HEAT: -1.533308
 CYCLE:    45 TIME:   0.020 TIME LEFT:  2.00D  GRAD.:     2.375 HEAT: -1.533294
 CYCLE:    46 TIME:   0.012 TIME LEFT:  2.00D  GRAD.:     2.495 HEAT: -1.532032
 CYCLE:    47 TIME:   0.012 TIME LEFT:  2.00D  GRAD.:     0.925 HEAT: -1.534863

     GRADIENT =  0.92513 IS LESS THAN CUTOFF =  1.00000



 -------------------------------------------------------------------------------
 PM3 CHARGE=0 EF XYZ VECTORS
 2-Ethoxynaphthalene



     GEOMETRY OPTIMISED USING EIGENVECTOR FOLLOWING (EF).     
     SCF FIELD WAS ACHIEVED                                   


                              PM3 CALCULATION
                                                       MOPAC2016 (Version: 22.066W)
                                                       Mon May  2 11:54:46 2022




          FINAL HEAT OF FORMATION =         -1.53487 KCAL/MOL =      -6.42188 KJ/MOL


          COSMO AREA              =        214.62 SQUARE ANGSTROMS
          COSMO VOLUME            =        216.46 CUBIC ANGSTROMS

          GRADIENT NORM           =          0.92513          =       0.18503 PER ATOM
          IONIZATION POTENTIAL    =          8.585627 EV
          HOMO LUMO ENERGIES (EV) =         -8.586 -0.405
          NO. OF FILLED LEVELS    =         33
          MOLECULAR WEIGHT        =        172.2262         POINT GROUP:  C1  

          MOLECULAR DIMENSIONS (Angstroms)

            Atom       Atom       Distance
            H    25    H    18    10.58054
            H    22    H    14     5.46040
            H    11    H    17     1.81796


          SCF CALCULATIONS        =         68
 
          WALL-CLOCK TIME         =          0.707 SECONDS
          COMPUTATION TIME        =          1.359 SECONDS




   ATOM     CHEMICAL       X               Y               Z
  NUMBER     SYMBOL   (ANGSTROMS)     (ANGSTROMS)     (ANGSTROMS)
 
     1       C(01)      0.01683123  *   0.00377586  *   0.00807020  *
     2       C(02)      1.39893712  *  -0.02368788  *   0.01465552  *
     3       C(03)      2.12319830  *   1.19396982  *   0.00505200  *
     4       C(04)      1.42840821  *   2.42147616  *  -0.00898728  *
     5       C(05)      0.00945179  *   2.41594335  *  -0.02268233  *
     6       C(06)     -0.68823876  *   1.23876393  *  -0.01506665  *
     7       O(07)     -0.57683501  *  -1.24098045  *  -0.00217934  *
     8       C(08)     -1.98280485  *  -1.29127176  *   0.21699346  *
     9       C(09)     -2.34595133  *  -2.75899678  *   0.34128941  *
    10       H(10)     -2.51039573  *  -0.81872697  *  -0.63361141  *
    11       H(11)     -2.25386665  *  -0.73307624  *   1.13408889  *
    12       H(12)     -1.78364620  *   1.25659194  *  -0.03115287  *
    13       C(13)      2.16291766  *   3.63857730  *  -0.00792812  *
    14       H(14)     -0.52205187  *   3.37408662  *  -0.04047127  *
    15       H(15)      1.94742617  *  -0.97381430  *   0.02590355  *
    16       C(16)      3.54638301  *   1.20260402  *   0.01545524  *
    17       H(17)     -2.09177554  *  -3.32472649  *  -0.56492709  *
    18       H(18)     -3.42498091  *  -2.86669371  *   0.50783615  *
    19       H(19)     -1.83005751  *  -3.24123135  *   1.18213502  *
    20       C(20)      4.22888282  *   2.38769401  *   0.01708420  *
    21       C(21)      3.53049527  *   3.61893387  *   0.00626855  *
    22       H(22)      4.08024652  *   0.24528503  *   0.02295298  *
    23       H(23)      5.32367108  *   2.39901195  *   0.02688587  *
    24       H(24)      1.61415235  *   4.58685311  *  -0.01765190  *
    25       H(25)      4.10101265  *   4.55348812  *   0.00971001  *

                             CARTESIAN COORDINATES

   1    C        0.016831226     0.003775856     0.008070200
   2    C        1.398937122    -0.023687883     0.014655517
   3    C        2.123198298     1.193969823     0.005052004
   4    C        1.428408207     2.421476157    -0.008987277
   5    C        0.009451789     2.415943353    -0.022682328
   6    C       -0.688238763     1.238763935    -0.015066647
   7    O       -0.576835007    -1.240980450    -0.002179336
   8    C       -1.982804848    -1.291271760     0.216993457
   9    C       -2.345951331    -2.758996780     0.341289414
  10    H       -2.510395729    -0.818726965    -0.633611410
  11    H       -2.253866648    -0.733076242     1.134088894
  12    H       -1.783646195     1.256591944    -0.031152872
  13    C        2.162917660     3.638577305    -0.007928118
  14    H       -0.522051866     3.374086615    -0.040471270
  15    H        1.947426174    -0.973814304     0.025903555
  16    C        3.546383013     1.202604024     0.015455244
  17    H       -2.091775543    -3.324726488    -0.564927094
  18    H       -3.424980912    -2.866693708     0.507836154
  19    H       -1.830057509    -3.241231347     1.182135018
  20    C        4.228882819     2.387694010     0.017084203
  21    C        3.530495272     3.618933871     0.006268546
  22    H        4.080246523     0.245285030     0.022952984
  23    H        5.323671077     2.399011954     0.026885871
  24    H        1.614152353     4.586853105    -0.017651901
  25    H        4.101012652     4.553488122     0.009710006


           Empirical Formula: C12 H12 O  =    25 atoms



      MOLECULAR POINT GROUP   :   C1  


                EIGENVECTORS  


   Root No.      25        26        27        28        29        30        31        32

                25 A      26 A      27 A      28 A      29 A      30 A      31 A      32 A   

               -13.365   -12.791   -12.536   -12.086   -12.033   -11.282   -10.508    -9.259
  
  S   C    1   -0.0296    0.0056   -0.0159   -0.0072    0.0011    0.0022    0.0011    0.0004
  Px  C    1    0.1007   -0.0386   -0.1285   -0.1131   -0.1301   -0.0253   -0.0061    0.0014
  Py  C    1   -0.1416   -0.1833    0.0704    0.1296    0.1152    0.0146    0.0001    0.0010
  Pz  C    1   -0.0506   -0.0180   -0.0092   -0.1923    0.2432    0.0144   -0.1180    0.2152
  S   C    2   -0.0295    0.0397    0.0323   -0.0206   -0.0232   -0.0105   -0.0047    0.0032
  Px  C    2   -0.0849    0.0152    0.1916    0.0940    0.1136    0.0297    0.0109   -0.0050
  Py  C    2    0.1784    0.1327    0.1471   -0.1372   -0.0949   -0.0001   -0.0027   -0.0015
  Pz  C    2    0.0130   -0.0067   -0.0080   -0.1111    0.1486    0.0039   -0.4160   -0.0875
  S   C    3   -0.0039   -0.0361   -0.0042   -0.0162   -0.0091    0.0026    0.0025   -0.0005
  Px  C    3   -0.0632   -0.2361   -0.0688   -0.1671   -0.1510   -0.0147   -0.0011    0.0032
  Py  C    3   -0.1210   -0.0599   -0.1779    0.1929    0.1402    0.0010   -0.0056   -0.0023
  Pz  C    3    0.0925    0.0096   -0.0023    0.0073   -0.0130    0.0017   -0.4130   -0.3539
  S   C    4   -0.0056    0.0292    0.0151   -0.0209   -0.0190   -0.0033   -0.0014    0.0007
  Px  C    4   -0.1304    0.0919    0.1845    0.1537    0.1476    0.0197    0.0019    0.0026
  Py  C    4    0.0151    0.0330    0.2642   -0.2069   -0.1526   -0.0064    0.0007   -0.0023
  Pz  C    4    0.1062    0.0126   -0.0002    0.0298   -0.0183   -0.2399    0.1593   -0.4451
  S   C    5   -0.0298   -0.0494    0.0038   -0.0092   -0.0055    0.0004   -0.0000   -0.0004
  Px  C    5    0.0982   -0.1109   -0.1659   -0.1511   -0.1461   -0.0116   -0.0055   -0.0006
  Py  C    5   -0.1391   -0.1163   -0.0395    0.1052    0.0884    0.0030    0.0055    0.0009
  Pz  C    5    0.0537   -0.0035    0.0003   -0.0851    0.1306   -0.4193    0.2360    0.1642
  S   C    6    0.0047    0.0063    0.0156   -0.0113   -0.0060    0.0042    0.0025   -0.0012
  Px  C    6   -0.1050   -0.0592    0.2169    0.1248    0.1342    0.0343    0.0062   -0.0106
  Py  C    6    0.1377    0.1808    0.0146   -0.1288   -0.1130   -0.0276   -0.0063    0.0117
  Pz  C    6    0.0035   -0.0190    0.0036   -0.1461    0.2246   -0.3606    0.1274    0.4839
  S   O    7   -0.0186   -0.0835    0.0438    0.0350    0.0378    0.0028   -0.0035    0.0040
  Px  O    7    0.1443   -0.1822    0.1629    0.0565    0.1136    0.0802    0.0365   -0.0244
  Py  O    7    0.0410    0.3039   -0.0260   -0.1042   -0.1014   -0.0385   -0.0152    0.0103
  Pz  O    7   -0.1526   -0.0049   -0.0153   -0.0980    0.0717    0.4361    0.2646   -0.1941
  S   C    8    0.0279    0.0223    0.0084   -0.0027   -0.0094   -0.0002    0.0017   -0.0055
  Px  C    8   -0.0913    0.1393   -0.1400   -0.0309   -0.1373   -0.0493   -0.0087   -0.0049
  Py  C    8    0.0912   -0.2638    0.0916    0.0823    0.0467    0.0126    0.0028   -0.0071
  Pz  C    8   -0.0066   -0.0302    0.0636    0.2601   -0.2452   -0.2307   -0.0959    0.0167
  S   C    9   -0.0111    0.0632   -0.0167   -0.0194   -0.0169   -0.0090   -0.0039    0.0040
  Px  C    9    0.4641   -0.1052    0.1497   -0.0059    0.0815    0.0141   -0.0013    0.0045
  Py  C    9   -0.1651    0.2764   -0.0956   -0.0772   -0.0467   -0.0179   -0.0072    0.0082
  Pz  C    9    0.0718    0.0426   -0.0816   -0.2287    0.2185    0.1178    0.0321   -0.0007
  S   H   10    0.0963   -0.1363    0.0449   -0.1556    0.2571    0.2365    0.1006   -0.0425
  S   H   11    0.0766   -0.1706    0.1194    0.2527   -0.1504   -0.2064   -0.0946    0.0380
  S   H   12    0.1090    0.0278   -0.1755   -0.1195   -0.1254   -0.0215   -0.0054    0.0021
  S   C   13    0.0325   -0.0087   -0.0240   -0.0089   -0.0081    0.0001   -0.0000    0.0002
  Px  C   13   -0.0711   -0.2400   -0.1300   -0.0784   -0.0717   -0.0067   -0.0053    0.0024
  Py  C   13    0.0716   -0.0137   -0.2901    0.1467    0.0972   -0.0008    0.0013   -0.0008
  Pz  C   13    0.0922    0.0136   -0.0001    0.1189   -0.1585    0.0304    0.4364   -0.2093
  S   H   14   -0.1583   -0.0688    0.0296    0.1662    0.1463    0.0162    0.0041   -0.0026
  S   H   15   -0.1713   -0.0718   -0.0115    0.1556    0.1307    0.0113    0.0018   -0.0011
  S   C   16    0.0364    0.0460    0.0002   -0.0121   -0.0137   -0.0037   -0.0012    0.0003
  Px  C   16    0.0324    0.2473    0.1201    0.1588    0.1480    0.0123    0.0055   -0.0025
  Py  C   16   -0.1017   -0.0054    0.2382   -0.1156   -0.0775    0.0014   -0.0002    0.0007
  Pz  C   16    0.0859    0.0171   -0.0016    0.1101   -0.1497    0.2584   -0.3437    0.2147
  S   H   17    0.1139   -0.1546    0.1325    0.2087   -0.1382   -0.0967   -0.0315    0.0030
  S   H   18   -0.3840    0.1088   -0.1486   -0.0313   -0.0503    0.0008    0.0052   -0.0040
  S   H   19    0.2947   -0.0977    0.0396   -0.1461    0.2107    0.1084    0.0315   -0.0033
  S   C   20    0.0107   -0.0313   -0.0355   -0.0036   -0.0040    0.0002    0.0006    0.0000
  Px  C   20   -0.1353   -0.2912   -0.0702   -0.1235   -0.1048   -0.0103   -0.0009   -0.0038
  Py  C   20    0.1364    0.0140   -0.2822    0.1333    0.0863    0.0001   -0.0014    0.0016
  Pz  C   20    0.0828    0.0148   -0.0006    0.1582   -0.2235    0.3449   -0.0554    0.4430
  S   C   21    0.0147    0.0428    0.0254    0.0026    0.0035    0.0001   -0.0001    0.0001
  Px  C   21    0.0501    0.2493    0.1231    0.1065    0.1002    0.0048   -0.0029   -0.0023
  Py  C   21   -0.1824   -0.0408    0.2945   -0.1462   -0.1013   -0.0006    0.0012    0.0005
  Pz  C   21    0.0885    0.0207    0.0003    0.1667   -0.2240    0.2363    0.3605    0.1816
  S   H   22    0.0993    0.1338   -0.1379    0.1724    0.1319    0.0048   -0.0003   -0.0002
  S   H   23   -0.1069   -0.2781   -0.0884   -0.1170   -0.1036   -0.0073   -0.0011    0.0002
  S   H   24    0.0919    0.0879   -0.1820    0.1645    0.1225    0.0039    0.0003   -0.0001
  S   H   25   -0.1011    0.1107    0.3021   -0.0637   -0.0313    0.0028    0.0006   -0.0002


   Root No.      33        34        35        36        37        38        39        40

                33 A      34 A      35 A      36 A      37 A      38 A      39 A      40 A   

                -8.586    -0.405     0.096     1.099     1.987     2.325     3.011     3.146
  
  S   C    1    0.0002   -0.0011   -0.0011    0.0005   -0.0256    0.4182   -0.2530    0.2232
  Px  C    1   -0.0003    0.0015    0.0034    0.0016    0.0004   -0.0778    0.0815   -0.0882
  Py  C    1    0.0051   -0.0035   -0.0097   -0.0049    0.0356   -0.2210   -0.2117    0.1137
  Pz  C    1    0.3715   -0.2278   -0.4188   -0.1889    0.4300    0.0580    0.0081    0.0158
  S   C    2    0.0047   -0.0010   -0.0028   -0.0024    0.0227   -0.2612    0.0883    0.0647
  Px  C    2   -0.0070    0.0004    0.0029    0.0004   -0.0134    0.1605   -0.0603    0.1671
  Py  C    2    0.0042    0.0047    0.0011    0.0033    0.0039   -0.0779   -0.0575    0.1107
  Pz  C    2    0.4728    0.3973    0.0281    0.3672   -0.2894   -0.0256    0.0158   -0.0322
  S   C    3   -0.0017    0.0009    0.0011    0.0023   -0.0146    0.1538   -0.0266   -0.3654
  Px  C    3    0.0025   -0.0002   -0.0037    0.0015    0.0029   -0.0171   -0.0011    0.0454
  Py  C    3    0.0001   -0.0006    0.0028   -0.0037    0.0133   -0.1284   -0.0645   -0.1190
  Pz  C    3   -0.1134   -0.0566    0.4761   -0.3007    0.0306   -0.0095   -0.0413    0.0555
  S   C    4    0.0004   -0.0008   -0.0002   -0.0004    0.0002    0.0020    0.2000    0.4643
  Px  C    4    0.0002    0.0002    0.0047    0.0037    0.0023   -0.0240   -0.0767    0.0197
  Py  C    4   -0.0006    0.0004   -0.0027   -0.0016   -0.0003    0.0007    0.0527   -0.0400
  Pz  C    4   -0.1885    0.0333   -0.4436   -0.3263   -0.0215    0.0167    0.0428   -0.0547
  S   C    5    0.0000    0.0004   -0.0002    0.0003   -0.0012    0.0672   -0.3249   -0.1880
  Px  C    5    0.0041   -0.0043    0.0004   -0.0042    0.0004   -0.0699    0.0103   -0.2247
  Py  C    5   -0.0055    0.0053    0.0009    0.0051    0.0044   -0.0338    0.0941   -0.0555
  Pz  C    5   -0.3408    0.4432    0.0194    0.4029    0.2669    0.0129   -0.0232    0.0334
  S   C    6   -0.0027    0.0009    0.0046    0.0015   -0.0047   -0.1268    0.4870   -0.1620
  Px  C    6   -0.0040    0.0057   -0.0019    0.0040    0.0089   -0.1062    0.0240   -0.0564
  Py  C    6    0.0054   -0.0069    0.0004   -0.0049   -0.0028    0.0894   -0.0637    0.2066
  Pz  C    6   -0.0491   -0.3259    0.3340   -0.2089   -0.3895   -0.0377    0.0087   -0.0274
  S   O    7    0.0080   -0.0040   -0.0095   -0.0050    0.0321   -0.2314   -0.0393   -0.0029
  Px  O    7   -0.0330    0.0120    0.0242    0.0123   -0.0521    0.2143    0.1531   -0.0666
  Py  O    7    0.0124   -0.0032   -0.0071   -0.0045    0.0401   -0.3985    0.0330   -0.0696
  Pz  O    7   -0.2802    0.0671    0.1197    0.0480   -0.0949   -0.0817   -0.0286    0.0064
  S   C    8   -0.0074    0.0081    0.0135    0.0099   -0.0457    0.2630    0.3015   -0.1078
  Px  C    8   -0.0117    0.0116    0.0249    0.0135   -0.0641    0.3199    0.0611   -0.0310
  Py  C    8   -0.0048    0.0024    0.0009    0.0015    0.0046   -0.0806    0.0203   -0.0434
  Pz  C    8    0.0383    0.0165    0.0068    0.0174   -0.0147   -0.0614   -0.0201    0.0010
  S   C    9    0.0046   -0.0028   -0.0044   -0.0036    0.0202   -0.1665   -0.0985    0.0004
  Px  C    9    0.0061   -0.0011   -0.0013   -0.0004   -0.0032    0.0255   -0.0108    0.0010
  Py  C    9    0.0086   -0.0041   -0.0066   -0.0048    0.0247   -0.1791   -0.1164    0.0160
  Pz  C    9   -0.0032   -0.0007   -0.0018    0.0005   -0.0005    0.0041    0.0044   -0.0024
  S   H   10   -0.0626    0.0141    0.0227    0.0132   -0.0199   -0.0703   -0.1753    0.0716
  S   H   11    0.0614   -0.0167   -0.0268   -0.0178    0.0401   -0.0320   -0.1643    0.0817
  S   H   12    0.0027    0.0000   -0.0034   -0.0006    0.0113   -0.0198   -0.3621    0.0513
  S   C   13    0.0002   -0.0000   -0.0002   -0.0002   -0.0013    0.0126   -0.1533   -0.3029
  Px  C   13   -0.0034    0.0043    0.0006   -0.0042    0.0039   -0.0130    0.0087    0.0625
  Py  C   13    0.0015   -0.0019   -0.0001    0.0018   -0.0005   -0.0028    0.0699    0.1110
  Pz  C   13    0.3305   -0.4114   -0.0556    0.4035   -0.2672   -0.0369   -0.0375    0.0422
  S   H   14   -0.0020    0.0004    0.0000   -0.0003    0.0017   -0.0756    0.1961    0.0735
  S   H   15   -0.0007   -0.0001   -0.0005   -0.0003    0.0008    0.0287   -0.1170   -0.0324
  S   C   16    0.0005   -0.0005   -0.0006   -0.0012    0.0066   -0.0822    0.0394    0.2136
  Px  C   16    0.0017    0.0037    0.0011   -0.0017   -0.0090    0.0731   -0.0015   -0.0920
  Py  C   16   -0.0014   -0.0015   -0.0002    0.0012    0.0032   -0.0271   -0.0236   -0.0229
  Pz  C   16   -0.3667   -0.3989   -0.0317    0.4105    0.2608    0.0328    0.0362   -0.0426
  S   H   17    0.0085    0.0019   -0.0011    0.0022    0.0009   -0.0122    0.0159    0.0018
  S   H   18   -0.0067    0.0025    0.0060    0.0035   -0.0244    0.1762    0.0590   -0.0023
  S   H   19   -0.0066   -0.0024   -0.0017   -0.0029    0.0061   -0.0073    0.0217    0.0049
  S   C   20    0.0000    0.0001   -0.0001    0.0006   -0.0038    0.0474   -0.0222   -0.1093
  Px  C   20    0.0015   -0.0027    0.0031    0.0019    0.0041   -0.0032    0.0096    0.0071
  Py  C   20   -0.0002    0.0008   -0.0012   -0.0014    0.0021   -0.0429   -0.0175    0.0152
  Pz  C   20   -0.1340    0.3030   -0.3397   -0.2262   -0.4112   -0.0436   -0.0344    0.0377
  S   C   21   -0.0001   -0.0000    0.0000    0.0003   -0.0005    0.0038    0.1082    0.1659
  Px  C   21   -0.0038   -0.0025   -0.0040    0.0021   -0.0045    0.0002   -0.0486   -0.0587
  Py  C   21    0.0011    0.0007    0.0010   -0.0007    0.0015   -0.0031    0.0203    0.0254
  Pz  C   21    0.3465    0.2391    0.3890   -0.2007    0.4129    0.0456    0.0345   -0.0384
  S   H   22   -0.0002    0.0001    0.0004   -0.0002    0.0008   -0.0013   -0.0510   -0.1604
  S   H   23    0.0005    0.0000    0.0001   -0.0008    0.0038   -0.0450    0.0140    0.0966
  S   H   24   -0.0000    0.0001    0.0004    0.0001    0.0013   -0.0126    0.0541    0.1849
  S   H   25   -0.0002    0.0001    0.0001   -0.0002    0.0001    0.0021   -0.0889   -0.1427


              NET ATOMIC CHARGES AND DIPOLE CONTRIBUTIONS

  ATOM NO.   TYPE          CHARGE      No. of ELECS.   s-Pop       p-Pop       
    1          C           0.091982        3.9080     1.16909     2.73892
    2          C          -0.146331        4.1463     1.17503     2.97130
    3          C          -0.001059        4.0011     1.15893     2.84213
    4          C          -0.069727        4.0697     1.16308     2.90665
    5          C          -0.052250        4.0523     1.17502     2.87723
    6          C          -0.163616        4.1636     1.17859     2.98503
    7          O          -0.192567        6.1926     1.83769     4.35488
    8          C           0.057909        3.9421     1.15766     2.78443
    9          C          -0.122149        4.1221     1.13841     2.98374
   10          H           0.035831        0.9642     0.96417
   11          H           0.038020        0.9620     0.96198
   12          H           0.114489        0.8855     0.88551
   13          C          -0.076962        4.0770     1.17702     2.89994
   14          H           0.103314        0.8967     0.89669
   15          H           0.123889        0.8761     0.87611
   16          C          -0.098132        4.0981     1.17918     2.91895
   17          H           0.051214        0.9488     0.94879
   18          H           0.045322        0.9547     0.95468
   19          H           0.051046        0.9490     0.94895
   20          C          -0.091779        4.0918     1.17863     2.91315
   21          C          -0.112725        4.1127     1.17910     2.93363
   22          H           0.106674        0.8933     0.89333
   23          H           0.101712        0.8983     0.89829
   24          H           0.102880        0.8971     0.89712
   25          H           0.103015        0.8970     0.89699
 DIPOLE           X         Y         Z       TOTAL
 POINT-CHG.    -0.930     0.197     0.219     0.976
 HYBRID        -0.300     0.211     0.029     0.368
 SUM           -1.231     0.408     0.249     1.320


          ATOMIC ORBITAL ELECTRON POPULATIONS

      Atom     s        px        py        pz   
   C(01)   1.16909   0.92179   0.85324   0.96390
   C(02)   1.17503   0.93286   0.97479   1.06365
   C(03)   1.15893   0.93604   0.92758   0.97851
   C(04)   1.16308   0.93788   0.94020   1.02857
   C(05)   1.17502   0.93489   0.96695   0.97538
   C(06)   1.17859   0.98904   0.93354   1.06245
   O(07)   1.83769   1.21288   1.25572   1.88628
   C(08)   1.15766   0.83025   0.96706   0.98713
   C(09)   1.13841   1.00559   0.95263   1.02552
   H(10)   0.96417
   H(11)   0.96198
   H(12)   0.88551
   C(13)   1.17702   0.94873   0.95819   0.99302
   H(14)   0.89669
   H(15)   0.87611
   C(16)   1.17918   0.93660   0.97542   1.00693
   H(17)   0.94879
   H(18)   0.95468
   H(19)   0.94895
   C(20)   1.17863   0.98121   0.93821   0.99373
   C(21)   1.17910   0.95132   0.97046   1.01184
   H(22)   0.89333
   H(23)   0.89829
   H(24)   0.89712
   H(25)   0.89699

 **********************
 *                    *
 * JOB ENDED NORMALLY *
 *                    *
 **********************



 TOTAL JOB TIME:             0.71 SECONDS

 == MOPAC DONE ==
