 *******************************************************************************
 ** Cite this program as: MOPAC2016, Version: 22.066W, James J. P. Stewart,   **
 **                           web-site: HTTP://OpenMOPAC.net.                 **
 *******************************************************************************
 **                                                                           **
 **                                MOPAC2016                                  **
 **                                                                           **
 *******************************************************************************

                              AM1 CALCULATION RESULTS

 *******************************************************************************
 *  CALCULATION DONE:                                Tue Jun  7 09:53:43 2022  *
 *  AM1        - The AM1 Hamiltonian to be used
 *
 *
 *
 *                 CHARGE ON SYSTEM = 0
 *
 *
 *
 *  T=         - A TIME OF 172800.0 SECONDS REQUESTED
 *  DUMP=N     - RESTART FILE WRITTEN EVERY 7200.0 SECONDS REQUESTED
 *  PRTCHARGE  - PRINT CHARGES IN ARC FILE
 *******************************************************************************
AM1 CHARGE=0 PRTCHAR


   ATOM   CHEMICAL          X               Y               Z
  NUMBER   SYMBOL      (ANGSTROMS)     (ANGSTROMS)     (ANGSTROMS)
 
     1       C          0.59494000     30.02061000     19.03666000   
     2       C          0.79596000     32.42973000     19.03666000   
     3       C         -1.39091000     31.39927000     19.03666000   
     4       C         25.70114000     15.52554000     30.05474000   
     5       C         27.68699000     16.90419000     30.05474000   
     6       C         27.88801000     14.49507000     30.05474000   
     7       C         27.68702000     45.66220000     35.40045000   
     8       C          0.79599000      1.14651000     35.40045000   
     9       C         52.79322000      0.11605000     35.40045000   
    10       C         -1.39088000     31.16713000     46.41852000   
    11       C          0.59497000     32.54578000     46.41852000   
    12       C          0.79599000     30.13666000     46.41852000   
    13       C         27.68696000     14.37903000      2.67288000   
    14       C         27.88799000     16.78815000      2.67288000   
    15       C         25.70112000     15.75768000      2.67288000   
    16       C         25.70112000     46.80876000     13.69095000   
    17       C          0.59491000      1.26261000     13.69095000   
    18       C        -26.29611000     45.77829000     13.69095000   
    19       C          1.11159000     28.92492000     18.34447000   
    20       C          1.48654000     33.42501000     18.34447000   
    21       C         -2.59813000     31.49968000     18.34447000   
    22       C         24.49392000     15.42512000     30.74693000   
    23       C         28.20364000     17.99989000     30.74693000   
    24       C         28.57859000     13.49980000     30.74693000   
    25       C         28.20366000     44.56651000     34.70826000   
    26       C          1.48657000      2.14179000     34.70826000   
    27       C         51.58600000      0.21646000     34.70826000   
    28       C         -2.59810000     31.06671000     47.11071000   
    29       C          1.11161000     33.64147000     47.11071000   
    30       C          1.48657000     29.14138000     47.11071000   
    31       C         28.20361000     13.28333000      1.98069000   
    32       C         28.57856000     17.78342000      1.98069000   
    33       C         24.49390000     15.85810000      1.98069000   
    34       C         24.49390000     46.70834000     14.38314000   
    35       C          1.11156000      2.35830000     14.38314000   
    36       C        -25.60554000     44.78302000     14.38314000   
    37       C          1.63121000     27.83251000     19.06808000   
    38       C          2.17278000     34.42122000     19.06808000   
    39       C         -3.80399000     31.59588000     19.06808000   
    40       C         23.28806000     15.32893000     30.02332000   
    41       C         28.72326000     19.09230000     30.02332000   
    42       C         29.26483000     12.50358000     30.02332000   
    43       C         28.72329000     43.47410000     35.43187000   
    44       C          2.17281000      3.13800000     35.43187000   
    45       C         50.38013000      0.31266000     35.43187000   
    46       C         -3.80397000     30.97051000     46.38710000   
    47       C          1.63124000     34.73388000     46.38710000   
    48       C          2.17281000     28.14517000     46.38710000   
    49       C         28.72324000     12.19092000      2.70430000   
    50       C         29.26481000     18.77964000      2.70430000   
    51       C         23.28803000     15.95429000      2.70430000   
    52       C         23.28803000     46.61215000     13.65953000   
    53       C          1.63119000      3.45071000     13.65953000   
    54       C        -24.91929000     43.78680000     13.65953000   
    55       C          3.28329000     26.76450000     17.53741000   
    56       C          2.27167000     36.38596000     17.53741000   
    57       C         -5.55495000     30.69915000     17.53741000   
    58       C         21.53710000     16.22566000     31.55399000   
    59       C         30.37534000     20.16030000     31.55399000   
    60       C         29.36372000     10.53884000     31.55399000   
    61       C        -23.80874000     42.40609000     33.90120000   
    62       C          2.27170000      5.10274000     33.90120000   
    63       C         21.53712000     46.34073000     33.90120000   
    64       C         -5.55493000     31.86725000     47.91777000   
    65       C          3.28331000     35.80189000     47.91777000   
    66       C          2.27170000     26.18043000     47.91777000   
    67       C         30.37531000     11.12292000      1.17363000   
    68       C         29.36369000     20.74438000      1.17363000   
    69       C         21.53707000     15.05756000      1.17363000   
    70       C         48.62912000      0.58407000     15.19020000   
    71       C          3.28326000      4.51872000     15.19020000   
    72       C         29.36369000     41.82206000     15.19020000   
    73       C          2.13621000     26.65658000     18.33515000   
    74       C          2.93867000     35.44653000     18.33515000   
    75       C         -5.07488000     31.74651000     18.33515000   
    76       C         22.01717000     15.17830000     30.75625000   
    77       C         29.22826000     20.26823000     30.75625000   
    78       C         30.03072000     11.47828000     30.75625000   
    79       C         29.22829000     42.29816000     34.69893000   
    80       C          2.93870000      4.16331000     34.69893000   
    81       C         49.10924000      0.46329000     34.69893000   
    82       C         -5.07486000     30.81988000     47.12004000   
    83       C          2.13624000     35.90982000     47.12004000   
    84       C          2.93870000     27.11986000     47.12004000   
    85       C         29.22823000     11.01499000      1.97136000   
    86       C         30.03070000     19.80494000      1.97136000   
    87       C         22.01714000     16.10492000      1.97136000   
    88       C         22.01714000     46.46152000     14.39247000   
    89       C          2.13618000      4.62665000     14.39247000   
    90       C        -24.15340000     42.76150000     14.39247000   
    91       C          1.55671000     25.39758000     18.54919000   
    92       C          4.31874000     35.57417000     18.54919000   
    93       C         -5.87545000     32.87787000     18.54919000   
    94       C         21.21660000     14.04694000     30.54221000   
    95       C         28.64876000     21.52722000     30.54221000   
    96       C         31.41079000     11.35064000     30.54221000   
    97       C         28.64879000     41.03917000     34.91297000   
    98       C          4.31877000      4.29095000     34.91297000   
    99       C         48.30867000      1.59465000     34.91297000   
   100       C         -5.87543000     29.68853000     46.90600000   
   101       C          1.55674000     37.16881000     46.90600000   
   102       C          4.31877000     26.99223000     46.90600000   
   103       C         28.64873000      9.75600000      2.18540000   
   104       C         31.41077000     19.93258000      2.18540000   
   105       C         21.21657000     17.23628000      2.18540000   
   106       C         21.21657000     45.33016000     14.17843000   
   107       C          1.55668000      5.88564000     14.17843000   
   108       C        -22.77333000     42.63386000     14.17843000   
   109       C          2.16465000     24.24886000     18.04060000   
   110       C          5.00959000     36.67502000     18.04060000   
   111       C         -7.17425000     32.92573000     18.04060000   
   112       C         19.91780000     13.99908000     31.05080000   
   113       C         29.25670000     22.67594000     31.05080000   
   114       C         32.10164000     10.24979000     31.05080000   
   115       C         29.25673000     39.89045000     34.40438000   
   116       C          5.00962000      5.39180000     34.40438000   
   117       C         47.00988000      1.64251000     34.40438000   
   118       C         -7.17422000     29.64066000     47.41459000   
   119       C          2.16468000     38.31753000     47.41459000   
   120       C          5.00962000     25.89137000     47.41459000   
   121       C         29.25668000      8.60728000      1.67681000   
   122       C         32.10161000     21.03343000      1.67681000   
   123       C         19.91778000     17.28414000      1.67681000   
   124       C         19.91778000     45.28230000     14.68702000   
   125       C          2.16463000      7.03436000     14.68702000   
   126       C        -22.08249000     41.53301000     14.68702000   
   127       C          3.36619000     24.34412000     17.32436000   
   128       C          4.32633000     37.66795000     17.32436000   
   129       C         -7.69252000     31.83754000     17.32436000   
   130       C         19.39953000     15.08726000     31.76704000   
   131       C         30.45824000     22.58069000     31.76704000   
   132       C         31.41838000      9.25686000     31.76704000   
   133       C         30.45826000     39.98571000     33.68814000   
   134       C          4.32636000      6.38473000     33.68814000   
   135       C         46.49161000      0.55432000     33.68814000   
   136       C         -7.69249000     30.72885000     48.13083000   
   137       C          3.36621000     38.22227000     48.13083000   
   138       C          4.32636000     24.89844000     48.13083000   
   139       C         30.45821000      8.70253000      0.96057000   
   140       C         31.41835000     22.02636000      0.96057000   
   141       C         19.39951000     16.19596000      0.96057000   
   142       C         19.39951000     46.37048000     15.40326000   
   143       C          3.36616000      6.93910000     15.40326000   
   144       C        -22.76575000     40.54008000     15.40326000   
   145       C          3.90207000     25.61391000     17.04257000   
   146       C          2.95872000     37.49714000     17.04257000   
   147       C         -6.86079000     30.73856000     17.04257000   
   148       C         20.23126000     16.18624000     32.04883000   
   149       C         30.99412000     21.31090000     32.04883000   
   150       C         30.05077000      9.42766000     32.04883000   
   151       C        -23.18995000     41.25549000     33.40635000   
   152       C          2.95875000      6.21392000     33.40635000   
   153       C         20.23129000     46.38015000     33.40635000   
   154       C         -6.86076000     31.82783000     48.41261000   
   155       C          3.90210000     36.95249000     48.41261000   
   156       C          2.95875000     25.06925000     48.41261000   
   157       C         30.99409000      9.97232000      0.67879000   
   158       C         30.05075000     21.85556000      0.67879000   
   159       C         20.23123000     15.09698000      0.67879000   
   160       C         47.32328000      0.54466000     15.68505000   
   161       C          3.90204000      5.66931000     15.68505000   
   162       C         30.05075000     40.71088000     15.68505000   
   163       C          4.10282000     23.11141000     16.99593000   
   164       C          5.02558000     38.92225000     16.99593000   
   165       C         -9.12840000     31.81596000     16.99593000   
   166       C         17.96365000     15.10885000     32.09547000   
   167       C         31.19487000     23.81340000     32.09547000   
   168       C         32.11763000      8.00256000     32.09547000   
   169       C         31.19490000     38.75299000     33.35972000   
   170       C          5.02560000      7.63903000     33.35972000   
   171       C         45.05573000      0.53274000     33.35972000   
   172       C         -9.12837000     30.75044000     48.45925000   
   173       C          4.10285000     39.45499000     48.45925000   
   174       C          5.02560000     23.64414000     48.45925000   
   175       C         31.19484000      7.46982000      0.63215000   
   176       C         32.11760000     23.28066000      0.63215000   
   177       C         17.96363000     16.17437000      0.63215000   
   178       C         17.96363000     46.39207000     15.73168000   
   179       C          4.10279000      8.17181000     15.73168000   
   180       C        -22.06650000     39.28578000     15.73168000   
   181       C          7.49176000     22.26629000     15.92280000   
   182       C          4.06299000     42.27972000     15.92280000   
   183       C        -11.55476000     29.30360000     15.92280000   
   184       C         15.53729000     17.62120000     33.16860000   
   185       C         34.58381000     24.65852000     33.16860000   
   186       C         31.15504000      4.64509000     33.16860000   
   187       C        -19.60026000     37.90788000     32.28658000   
   188       C          4.06302000     10.99650000     32.28658000   
   189       C         15.53732000     44.94519000     32.28658000   
   190       C        -11.55473000     33.26279000      0.44099000   
   191       C          7.49179000     40.30010000      0.44099000   
   192       C          4.06302000     20.28667000      0.44099000   
   193       C         34.58379000      6.62470000     48.65041000   
   194       C         31.15502000     26.63813000     48.65041000   
   195       C         15.53726000     13.66202000     48.65041000   
   196       C         42.62931000      1.97962000     16.80482000   
   197       C          7.49174000      9.01693000     16.80482000   
   198       C         31.15502000     35.92831000     16.80482000   
   199       C          6.24797000     22.04715000     16.52515000   
   200       C          4.87467000     41.31213000     16.52515000   
   201       C        -11.12264000     30.49033000     16.52515000   
   202       C         15.96941000     16.43448000     32.56625000   
   203       C         33.34002000     24.87766000     32.56625000   
   204       C         31.96672000      5.61268000     32.56625000   
   205       C        -20.84405000     37.68874000     32.88893000   
   206       C          4.87470000     10.02891000     32.88893000   
   207       C         15.96944000     46.13192000     32.88893000   
   208       C        -11.12261000     32.07606000     48.93004000   
   209       C          6.24800000     40.51924000     48.93004000   
   210       C          4.87470000     21.25426000     48.93004000   
   211       C         33.33999000      6.40556000      0.16136000   
   212       C         31.96670000     25.67054000      0.16136000   
   213       C         15.96938000     14.84875000      0.16136000   
   214       C         43.06143000      0.79289000     16.20247000   
   215       C          6.24794000      9.23607000     16.20247000   
   216       C         31.96670000     36.89590000     16.20247000   
   217       C          5.96431000     20.77971000     17.06957000   
   218       C          6.11413000     41.70020000     17.06957000   
   219       C        -12.07845000     31.36970000     17.06957000   
   220       C         15.01360000     15.55510000     32.02183000   
   221       C         33.05636000     26.14509000     32.02183000   
   222       C         33.20618000      5.22461000     32.02183000   
   223       C         33.05639000     36.42130000     33.43335000   
   224       C          6.11416000     10.41698000     33.43335000   
   225       C         42.10568000      0.08648000     33.43335000   
   226       C        -12.07842000     31.19669000     48.38561000   
   227       C          5.96434000     41.78668000     48.38561000   
   228       C          6.11416000     20.86619000     48.38561000   
   229       C         33.05634000      5.13813000      0.70579000   
   230       C         33.20616000     26.05861000      0.70579000   
   231       C         15.01357000     15.72812000      0.70579000   
   232       C         15.01357000     46.83832000     15.65805000   
   233       C          5.96429000     10.50351000     15.65805000   
   234       C        -20.97794000     36.50783000     15.65805000   
   235       C          6.91389000     19.75816000     17.00772000   
   236       C          6.52404000     43.03333000     17.00772000   
   237       C        -13.43793000     31.05812000     17.00772000   
   238       C         13.65412000     15.86669000     32.08368000   
   239       C         34.00594000     27.16665000     32.08368000   
   240       C         33.61609000      3.89147000     32.08368000   
   241       C        -20.17813000     35.39975000     33.37150000   
   242       C          6.52406000     11.75011000     33.37150000   
   243       C         13.65415000     46.69971000     33.37150000   
   244       C        -13.43790000     31.50827000     48.44747000   
   245       C          6.91392000     42.80823000     48.44747000   
   246       C          6.52406000     19.53306000     48.44747000   
   247       C         34.00591000      4.11657000      0.64393000   
   248       C         33.61606000     27.39175000      0.64393000   
   249       C         13.65410000     15.41654000      0.64393000   
   250       C         40.74615000      0.22510000     15.71990000   
   251       C          6.91386000     11.52506000     15.71990000   
   252       C         33.61606000     35.17469000     15.71990000   
   253       C          8.16446000     19.98152000     16.41076000   
   254       C          5.70531000     44.00468000     16.41076000   
   255       C        -13.86977000     29.86342000     16.41076000   
   256       C         13.22228000     17.06139000     32.68064000   
   257       C         35.25651000     26.94329000     32.68064000   
   258       C         32.79736000      2.92013000     32.68064000   
   259       C        -18.92756000     35.62311000     32.77455000   
   260       C          5.70534000     12.72146000     32.77455000   
   261       C         13.22230000     45.50500000     32.77455000   
   262       C        -13.86975000     32.70298000     49.04442000   
   263       C          8.16449000     42.58487000     49.04442000   
   264       C          5.70534000     18.56172000     49.04442000   
   265       C         35.25648000      4.33993000      0.04698000   
   266       C         32.79734000     28.36309000      0.04698000   
   267       C         13.22225000     14.22183000      0.04698000   
   268       C         40.31430000      1.41980000     16.31685000   
   269       C          8.16443000     11.30170000     16.31685000   
   270       C         32.79734000     34.20335000     16.31685000   
   271       C          8.44432000     21.24521000     15.85849000   
   272       C          4.47100000     43.61520000     15.85849000   
   273       C        -12.91532000     28.98921000     15.85849000   
   274       C         14.17673000     17.93560000     33.23291000   
   275       C         35.53637000     25.67960000     33.23291000   
   276       C         31.56305000      3.30961000     33.23291000   
   277       C        -18.64770000     36.88679000     32.22227000   
   278       C          4.47103000     12.33198000     32.22227000   
   279       C         14.17676000     44.63079000     32.22227000   
   280       C        -12.91529000     33.57719000      0.50530000   
   281       C          8.44435000     41.32119000      0.50530000   
   282       C          4.47103000     18.95119000      0.50530000   
   283       C         35.53634000      5.60362000     48.58610000   
   284       C         31.56302000     27.97361000     48.58610000   
   285       C         14.17670000     13.34762000     48.58610000   
   286       C         41.26875000      2.29401000     16.86913000   
   287       C          8.44429000     10.03801000     16.86913000   
   288       C         31.56302000     34.59283000     16.86913000   
   289       C         11.13537000     16.85164000     16.37885000   
   290       C         34.02247000      1.21770000     16.37885000   
   291       C         36.11831000     28.85547000     16.37885000   
   292       C          9.02626000     18.06934000     32.71255000   
   293       C        -15.95668000     30.07317000     32.71255000   
   294       C          6.93042000     45.70711000     32.71255000   
   295       C        -15.95665000     32.49322000     32.74264000   
   296       C          6.93044000     16.85929000     32.74264000   
   297       C          9.02629000     44.49706000     32.74264000   
   298       C        -18.06576000     33.71092000     49.07633000   
   299       C         11.13540000     45.71476000     49.07633000   
   300       C          6.93044000     14.42389000     49.07633000   
   301       C         38.22740000      1.21005000      0.01507000   
   302       C         34.02244000     32.50092000      0.01507000   
   303       C          9.02623000     13.21388000      0.01507000   
   304       C         36.11828000      2.42775000     16.34876000   
   305       C         11.13535000     14.43158000     16.34876000   
   306       C         34.02244000     30.06552000     16.34876000   
   307       C          7.82608000     19.93882000     30.74005000   
   308       C          5.91149000     43.73298000     30.74005000   
   309       C        -13.73757000     30.17781000     30.74005000   
   310       C         13.35448000     16.74699000     18.35135000   
   311       C         34.91813000     26.98599000     18.35135000   
   312       C         33.00354000      3.19183000     18.35135000   
   313       C        -19.26594000     35.58041000     47.10384000   
   314       C          5.91151000     12.44976000     47.10384000   
   315       C         13.35451000     45.81940000     47.10384000   
   316       C        -13.73754000     32.38858000     34.71513000   
   317       C          7.82611000     42.62757000     34.71513000   
   318       C          5.91151000     18.83341000     34.71513000   
   319       C         34.91810000      4.29723000     14.37627000   
   320       C         33.00351000     28.09139000     14.37627000   
   321       C         13.35446000     14.53623000     14.37627000   
   322       C         40.44651000      1.10541000      1.98756000   
   323       C          7.82605000     11.34440000      1.98756000   
   324       C         33.00351000     34.47505000      1.98756000   
   325       C          6.98487000     19.11154000     31.51766000   
   326       C          7.04854000     43.41812000     31.51766000   
   327       C        -14.03341000     31.31996000     31.51766000   
   328       C         13.05864000     15.60484000     17.57374000   
   329       C         34.07692000     27.81327000     17.57374000   
   330       C         34.14059000      3.50669000     17.57374000   
   331       C         34.07695000     34.75312000     47.88144000   
   332       C          7.04857000     12.13490000     47.88144000   
   333       C         40.15072000      0.03674000     47.88144000   
   334       C        -14.03338000     31.24643000     33.93752000   
   335       C          6.98490000     43.45486000     33.93752000   
   336       C          7.04857000     19.14828000     33.93752000   
   337       C         34.07690000      3.46995000     15.15388000   
   338       C         34.14056000     27.77653000     15.15388000   
   339       C         13.05861000     15.67838000     15.15388000   
   340       C         13.05861000     46.88806000      1.20996000   
   341       C          6.98485000     12.17168000      1.20996000   
   342       C        -20.04354000     34.78991000      1.20996000   
   343       C          5.59722000     19.16034000     31.26337000   
   344       C          7.70010000     42.19197000     31.26337000   
   345       C        -13.29732000     32.49731000     31.26337000   
   346       C         13.79473000     14.42750000     17.82803000   
   347       C         32.68927000     27.76447000     17.82803000   
   348       C         34.79215000      4.73284000     17.82803000   
   349       C         32.68929000     34.80192000     47.62715000   
   350       C          7.70013000     10.90875000     47.62715000   
   351       C         40.88681000      1.21409000     47.62715000   
   352       C        -13.29729000     30.06909000     34.19182000   
   353       C          5.59724000     43.40606000     34.19182000   
   354       C          7.70013000     20.37442000     34.19182000   
   355       C         32.68924000      3.51875000     14.89958000   
   356       C         34.79213000     26.55038000     14.89958000   
   357       C         13.79470000     16.85572000     14.89958000   
   358       C         13.79470000     45.71072000      1.46425000   
   359       C          5.59719000     12.12288000      1.46425000   
   360       C        -19.39197000     36.01606000      1.46425000   
   361       C          5.08247000     19.91677000     30.21183000   
   362       C          7.30239000     41.36797000     30.21183000   
   363       C        -12.38486000     32.56488000     30.21183000   
   364       C         14.70719000     14.35993000     18.87957000   
   365       C         32.17452000     27.00804000     18.87957000   
   366       C         34.39444000      5.55684000     18.87957000   
   367       C         32.17455000     35.55835000     46.57561000   
   368       C          7.30242000     10.08475000     46.57561000   
   369       C         41.79927000      1.28166000     46.57561000   
   370       C        -12.38483000     30.00152000     35.24335000   
   371       C          5.08250000     42.64963000     35.24335000   
   372       C          7.30242000     21.19842000     35.24335000   
   373       C         32.17449000      4.27518000     13.84805000   
   374       C         34.39441000     25.72638000     13.84805000   
   375       C         14.70716000     16.92329000     13.84805000   
   376       C         14.70716000     45.64315000      2.51579000   
   377       C          5.08244000     11.36646000      2.51579000   
   378       C        -19.78969000     36.84006000      2.51579000   
   379       C          5.93262000     20.69102000     29.41017000   
   380       C          6.20679000     41.71709000     29.41017000   
   381       C        -12.13941000     31.44150000     29.41017000   
   382       C         14.95264000     15.48331000     19.68123000   
   383       C         33.02467000     26.23378000     19.68123000   
   384       C         33.29884000      5.20772000     19.68123000   
   385       C         33.02469000     36.33261000     45.77395000   
   386       C          6.20682000     10.43387000     45.77395000   
   387       C         42.04472000      0.15828000     45.77395000   
   388       C        -12.13938000     31.12490000     36.04502000   
   389       C          5.93264000     41.87537000     36.04502000   
   390       C          6.20682000     20.84930000     36.04502000   
   391       C         33.02464000      5.04944000     13.04638000   
   392       C         33.29881000     26.07551000     13.04638000   
   393       C         14.95262000     15.79991000     13.04638000   
   394       C         14.95262000     46.76653000      3.31745000   
   395       C          5.93259000     10.59220000      3.31745000   
   396       C        -20.88529000     36.49094000      3.31745000   
   397       C          7.30808000     20.69900000     29.68753000   
   398       C          5.51215000     42.90429000     29.68753000   
   399       C        -12.82023000     30.24632000     29.68753000   
   400       C         14.27182000     16.67848000     19.40387000   
   401       C         34.40013000     26.22581000     19.40387000   
   402       C         32.60420000      4.02052000     19.40387000   
   403       C        -19.78394000     36.34059000     46.05132000   
   404       C          5.51218000     11.62107000     46.05132000   
   405       C         14.27185000     45.88791000     46.05132000   
   406       C        -12.82020000     32.32007000     35.76765000   
   407       C          7.30811000     41.86739000     35.76765000   
   408       C          5.51218000     19.66210000     35.76765000   
   409       C         34.40010000      5.05741000     13.32375000   
   410       C         32.60417000     27.26270000     13.32375000   
   411       C         14.27179000     14.60474000     13.32375000   
   412       C         41.36384000      1.03690000      3.04008000   
   413       C          7.30805000     10.58422000      3.04008000   
   414       C         32.60417000     35.30374000      3.04008000   
   415       C          4.23963000     22.29445000     28.47399000   
   416       C          5.66468000     39.44922000     28.47399000   
   417       C         -9.90431000     32.10595000     28.47399000   
   418       C         17.18774000     14.81885000     20.61741000   
   419       C         31.33168000     24.63036000     20.61741000   
   420       C         32.75673000      7.47559000     20.61741000   
   421       C         31.33171000     37.93603000     44.83778000   
   422       C          5.66470000      8.16600000     44.83778000   
   423       C         44.27982000      0.82273000     44.83778000   
   424       C         -9.90428000     30.46044000     36.98119000   
   425       C          4.23966000     40.27195000     36.98119000   
   426       C          5.66470000     23.11718000     36.98119000   
   427       C         31.33166000      6.65286000     12.11021000   
   428       C         32.75670000     23.80763000     12.11021000   
   429       C         17.18771000     16.46437000     12.11021000   
   430       C         17.18771000     46.10207000      4.25362000   
   431       C          4.23961000      8.98878000      4.25362000   
   432       C        -21.42740000     38.75881000      4.25362000   
   433       C          5.38346000     21.49485000     28.29334000   
   434       C          5.78524000     40.83960000     28.29334000   
   435       C        -11.16870000     31.51517000     28.29334000   
   436       C         15.92335000     15.40964000     20.79806000   
   437       C         32.47551000     25.42996000     20.79806000   
   438       C         32.87729000      6.08521000     20.79806000   
   439       C         32.47554000     37.13643000     44.65712000   
   440       C          5.78526000      9.55638000     44.65712000   
   441       C         43.01543000      0.23195000     44.65712000   
   442       C        -11.16867000     31.05122000     37.16185000   
   443       C          5.38349000     41.07155000     37.16185000   
   444       C          5.78526000     21.72680000     37.16185000   
   445       C         32.47548000      5.85326000     11.92955000   
   446       C         32.87726000     25.19801000     11.92955000   
   447       C         15.92333000     15.87358000     11.92955000   
   448       C         15.92333000     46.69286000      4.43428000   
   449       C          5.38343000      9.78837000      4.43428000   
   450       C        -21.30684000     37.36843000      4.43428000   
   451       C          5.99412000     21.45355000     27.02825000   
   452       C          5.51567000     41.38909000     27.02825000   
   453       C        -11.50979000     31.00697000     27.02825000   
   454       C         15.58226000     15.91783000     22.06315000   
   455       C         33.08617000     25.47125000     22.06315000   
   456       C         32.60772000      5.53572000     22.06315000   
   457       C        -21.09791000     37.09514000     43.39204000   
   458       C          5.51570000     10.10587000     43.39204000   
   459       C         15.58229000     46.64856000     43.39204000   
   460       C        -11.50976000     31.55942000     38.42693000   
   461       C          5.99414000     41.11284000     38.42693000   
   462       C          5.51570000     21.17731000     38.42693000   
   463       C         33.08614000      5.81197000     10.66447000   
   464       C         32.60769000     25.74750000     10.66447000   
   465       C         15.58224000     15.36539000     10.66447000   
   466       C         42.67429000      0.27625000      5.69936000   
   467       C          5.99409000      9.82967000      5.69936000   
   468       C         32.60769000     36.81894000      5.69936000   
   469       C          5.46961000     22.18933000     25.96101000   
   470       C          5.14072000     40.56696000     25.96101000   
   471       C        -10.61033000     31.09332000     25.96101000   
   472       C         16.48172000     15.83149000     23.13039000   
   473       C         32.56166000     24.73547000     23.13039000   
   474       C         32.23277000      6.35784000     23.13039000   
   475       C        -21.62241000     37.83092000     42.32479000   
   476       C          5.14074000      9.28374000     42.32479000   
   477       C         16.48175000     46.73490000     42.32479000   
   478       C        -10.61030000     31.47308000     39.49418000   
   479       C          5.46964000     40.37706000     39.49418000   
   480       C          5.14074000     21.99943000     39.49418000   
   481       C         32.56164000      6.54775000      9.59722000   
   482       C         32.23274000     24.92538000      9.59722000   
   483       C         16.48169000     15.45173000      9.59722000   
   484       C         43.57374000      0.18990000      6.76661000   
   485       C          5.46959000      9.09389000      6.76661000   
   486       C         32.23274000     37.64106000      6.76661000   
   487       C          4.32633000     22.98893000     26.14657000   
   488       C          5.01989000     39.17705000     26.14657000   
   489       C         -9.34622000     31.68363000     26.14657000   
   490       C         17.74583000     15.24118000     22.94483000   
   491       C         31.41838000     23.93587000     22.94483000   
   492       C         32.11194000      7.74775000     22.94483000   
   493       C         31.41841000     38.63052000     42.51035000   
   494       C          5.01991000      7.89383000     42.51035000   
   495       C         44.83791000      0.40041000     42.51035000   
   496       C         -9.34619000     30.88276000     39.30861000   
   497       C          4.32636000     39.57746000     39.30861000   
   498       C          5.01991000     23.38934000     39.30861000   
   499       C         31.41835000      7.34735000      9.78279000   
   500       C         32.11191000     23.53547000      9.78279000   
   501       C         17.74581000     16.04204000      9.78279000   
   502       C         17.74581000     46.52440000      6.58105000   
   503       C          4.32630000      8.29429000      6.58105000   
   504       C        -22.07219000     39.03098000      6.58105000   
   505       C          3.71676000     23.02460000     27.40527000   
   506       C          5.29379000     38.63132000     27.40527000   
   507       C         -9.01054000     32.19370000     27.40527000   
   508       C         18.08151000     14.73110000     21.68613000   
   509       C         30.80881000     23.90021000     21.68613000   
   510       C         32.38584000      8.29349000     21.68613000   
   511       C         30.80884000     38.66618000     43.76906000   
   512       C          5.29381000      7.34810000     43.76906000   
   513       C         45.17358000      0.91048000     43.76906000   
   514       C         -9.01052000     30.37269000     38.04991000   
   515       C          3.71679000     39.54180000     38.04991000   
   516       C          5.29381000     23.93508000     38.04991000   
   517       C         30.80878000      7.38301000     11.04149000   
   518       C         32.38581000     22.98973000     11.04149000   
   519       C         18.08148000     16.55212000     11.04149000   
   520       C         18.08148000     46.01433000      5.32234000   
   521       C          3.71673000      8.25863000      5.32234000   
   522       C        -21.79829000     39.57671000      5.32234000   
   523       C          4.29057000     24.08979000     23.96102000   
   524       C          4.08440000     38.59565000     23.96102000   
   525       C         -8.37497000     31.16417000     23.96102000   
   526       C         18.71708000     15.76063000     25.13038000   
   527       C         31.38262000     22.83502000     25.13038000   
   528       C         31.17645000      8.32915000     25.13038000   
   529       C        -22.80145000     39.73137000     40.32481000   
   530       C          4.08442000      7.31243000     40.32481000   
   531       C         18.71711000     46.80576000     40.32481000   
   532       C         -8.37494000     31.40222000     41.49416000   
   533       C          4.29060000     38.47661000     41.49416000   
   534       C          4.08442000     23.97074000     41.49416000   
   535       C         31.38259000      8.44820000      7.59724000   
   536       C         31.17642000     22.95407000      7.59724000   
   537       C         18.71706000     15.52259000      7.59724000   
   538       C         45.80911000      0.11905000      8.76659000   
   539       C          4.29054000      7.19343000      8.76659000   
   540       C         31.17642000     39.61237000      8.76659000   
   541       C          2.29388000     26.79923000     21.30125000   
   542       C          2.73630000     35.51176000     21.30125000   
   543       C         -5.03018000     31.53863000     21.30125000   
   544       C         22.06187000     15.38617000     27.79015000   
   545       C         29.38593000     20.12558000     27.79015000   
   546       C         29.82835000     11.41305000     27.79015000   
   547       C         29.38596000     42.44081000     37.66503000   
   548       C          2.73632000      4.22854000     37.66503000   
   549       C         49.15395000      0.25541000     37.66503000   
   550       C         -5.03015000     31.02776000     44.15393000   
   551       C          2.29391000     35.76717000     44.15393000   
   552       C          2.73632000     27.05464000     44.15393000   
   553       C         29.38591000     11.15764000      4.93747000   
   554       C         29.82832000     19.87017000      4.93747000   
   555       C         22.06184000     15.89705000      4.93747000   
   556       C         22.06184000     46.66940000     11.42637000   
   557       C          2.29386000      4.48399000     11.42637000   
   558       C        -24.35578000     42.69627000     11.42637000   
   559       C          1.65451000     27.86442000     20.49271000   
   560       C          2.13350000     34.42545000     20.49271000   
   561       C         -3.78801000     31.55975000     20.49271000   
   562       C         23.30404000     15.36506000     28.59869000   
   563       C         28.74656000     19.06039000     28.59869000   
   564       C         29.22555000     12.49936000     28.59869000   
   565       C         28.74659000     43.50601000     36.85650000   
   566       C          2.13353000      3.14223000     36.85650000   
   567       C         50.39612000      0.27653000     36.85650000   
   568       C         -3.78798000     31.00665000     44.96247000   
   569       C          1.65454000     34.70197000     44.96247000   
   570       C          2.13353000     28.14095000     44.96247000   
   571       C         28.74653000     12.22283000      4.12893000   
   572       C         29.22552000     18.78386000      4.12893000   
   573       C         23.30401000     15.91816000      4.12893000   
   574       C         23.30401000     46.64828000     12.23490000   
   575       C          1.65448000      3.41880000     12.23490000   
   576       C        -24.95858000     43.78258000     12.23490000   
   577       C          1.11484000     28.96621000     21.17410000   
   578       C          1.44915000     33.40718000     21.17410000   
   579       C         -2.56399000     31.47622000     21.17410000   
   580       C         24.52806000     15.44858000     27.91730000   
   581       C         28.20689000     17.95859000     27.91730000   
   582       C         28.54120000     13.51763000     27.91730000   
   583       C         28.20691000     44.60780000     37.53789000   
   584       C          1.44918000      2.12396000     37.53789000   
   585       C         51.62014000      0.19300000     37.53789000   
   586       C         -2.56396000     31.09017000     44.28108000   
   587       C          1.11486000     33.60018000     44.28108000   
   588       C          1.44918000     29.15922000     44.28108000   
   589       C         28.20686000     13.32463000      4.81032000   
   590       C         28.54118000     17.76559000      4.81032000   
   591       C         24.52803000     15.83464000      4.81032000   
   592       C         24.52803000     46.73181000     11.55351000   
   593       C          1.11481000      2.31701000     11.55351000   
   594       C        -25.64292000     44.80085000     11.55351000   
   595       C          0.59088000     30.02953000     20.45477000   
   596       C          0.79028000     32.42176000     20.45477000   
   597       C         -1.38115000     31.39833000     20.45477000   
   598       C         25.71090000     15.52648000     28.63663000   
   599       C         27.68293000     16.89528000     28.63663000   
   600       C         27.88233000     14.50305000     28.63663000   
   601       C         27.68295000     45.67112000     36.81855000   
   602       C          0.79030000      1.13854000     36.81855000   
   603       C         52.80297000      0.11511000     36.81855000   
   604       C         -1.38113000     31.16807000     45.00047000   
   605       C          0.59090000     32.53686000     45.00047000   
   606       C          0.79030000     30.14464000     45.00047000   
   607       C         27.68290000     14.38794000      4.09093000   
   608       C         27.88230000     16.78017000      4.09093000   
   609       C         25.71087000     15.75674000      4.09093000   
   610       C         25.71087000     46.80970000     12.27285000   
   611       C          0.59085000      1.25369000     12.27285000   
   612       C        -26.30180000     45.78627000     12.27285000   
   613       C          1.58732000     26.19953000     22.35426000   
   614       C          3.60893000     35.19971000     22.35426000   
   615       C         -5.19626000     32.45038000     22.35426000   
   616       C         21.89579000     14.47443000     26.73714000   
   617       C         28.67937000     20.72528000     26.73714000   
   618       C         30.70098000     11.72510000     26.73714000   
   619       C         28.67940000     41.84111000     38.71804000   
   620       C          3.60896000      3.91649000     38.71804000   
   621       C         48.98787000      1.16716000     38.71804000   
   622       C         -5.19623000     30.11601000     43.10092000   
   623       C          1.58735000     36.36687000     43.10092000   
   624       C          3.60896000     27.36669000     43.10092000   
   625       C         28.67935000     10.55794000      5.99048000   
   626       C         30.70095000     19.55812000      5.99048000   
   627       C         21.89577000     16.80879000      5.99048000   
   628       C         21.89577000     45.75765000     10.37336000   
   629       C          1.58730000      5.08369000     10.37336000   
   630       C        -23.48315000     43.00832000     10.37336000   
   631       C          2.22155000     25.29059000     23.20305000   
   632       C          4.07898000     36.20343000     23.20305000   
   633       C         -6.30053000     32.35559000     23.20305000   
   634       C         20.79152000     14.56921000     25.88835000   
   635       C         29.31360000     21.63421000     25.88835000   
   636       C         31.17103000     10.72138000     25.88835000   
   637       C         29.31363000     40.93218000     39.56683000   
   638       C          4.07901000      4.92021000     39.56683000   
   639       C         47.88360000      1.07237000     39.56683000   
   640       C         -6.30050000     30.21080000     42.25213000   
   641       C          2.22158000     37.27580000     42.25213000   
   642       C          4.07901000     26.36297000     42.25213000   
   643       C         29.31357000      9.64901000      6.83927000   
   644       C         31.17100000     20.56184000      6.83927000   
   645       C         20.79150000     16.71401000      6.83927000   
   646       C         20.79150000     45.85243000      9.52457000   
   647       C          2.22152000      5.99263000      9.52457000   
   648       C        -23.01310000     42.00460000      9.52457000   
   649       C          3.57615000     24.96494000     23.01208000   
   650       C          3.68371000     37.53938000     23.01208000   
   651       C         -7.25986000     31.34530000     23.01208000   
   652       C         19.83219000     15.57951000     26.07932000   
   653       C         30.66820000     21.95987000     26.07932000   
   654       C         30.77576000      9.38543000     26.07932000   
   655       C         30.66823000     40.60652000     39.37587000   
   656       C          3.68373000      6.25616000     39.37587000   
   657       C         46.92427000      0.06208000     39.37587000   
   658       C         -7.25983000     31.22109000     42.44310000   
   659       C          3.57618000     37.60146000     42.44310000   
   660       C          3.68373000     25.02702000     42.44310000   
   661       C         30.66817000      9.32335000      6.64830000   
   662       C         30.77573000     21.89779000      6.64830000   
   663       C         19.83217000     15.70372000      6.64830000   
   664       C         19.83217000     46.86273000      9.71553000   
   665       C          3.57612000      6.31828000      9.71553000   
   666       C        -23.40837000     40.66865000      9.71553000   
   667       C          3.63900000     26.45245000     21.09163000   
   668       C          2.36405000     36.85005000     21.09163000   
   669       C         -6.00306000     30.54711000     21.09163000   
   670       C         21.08899000     16.37770000     27.99977000   
   671       C         30.73105000     20.47235000     27.99977000   
   672       C         29.45610000     10.07476000     27.99977000   
   673       C        -23.45302000     42.09404000     37.45541000   
   674       C          2.36408000      5.56683000     37.45541000   
   675       C         21.08902000     46.18870000     37.45541000   
   676       C         -6.00303000     32.01928000     44.36355000   
   677       C          3.63903000     36.11394000     44.36355000   
   678       C          2.36408000     25.71634000     44.36355000   
   679       C         30.73103000     10.81087000      4.72785000   
   680       C         29.45608000     21.20846000      4.72785000   
   681       C         21.08897000     14.90552000      4.72785000   
   682       C         48.18102000      0.73611000     11.63599000   
   683       C          3.63898000      4.83077000     11.63599000   
   684       C         29.45608000     41.35798000     11.63599000   
   685       C          4.27079000     25.53366000     21.93404000   
   686       C          2.84385000     37.85659000     21.93404000   
   687       C         -7.11464000     30.45936000     21.93404000   
   688       C         19.97741000     16.46545000     27.15736000   
   689       C         31.36284000     21.39114000     27.15736000   
   690       C         29.93590000      9.06822000     27.15736000   
   691       C        -22.82123000     41.17525000     38.29782000   
   692       C          2.84388000      6.57337000     38.29782000   
   693       C         19.97743000     46.10095000     38.29782000   
   694       C         -7.11462000     32.10703000     43.52115000   
   695       C          4.27082000     37.03273000     43.52115000   
   696       C          2.84388000     24.70981000     43.52115000   
   697       C         31.36281000      9.89208000      5.57025000   
   698       C         29.93588000     22.21500000      5.57025000   
   699       C         19.97738000     14.81777000      5.57025000   
   700       C         47.06943000      0.82386000     10.79358000   
   701       C          4.27076000      5.74956000     10.79358000   
   702       C         29.93588000     40.35144000     10.79358000   
   703       C          9.64721000     17.56724000     31.54810000   
   704       C          7.05477000     46.49591000     31.54810000   
   705       C        -16.70198000     29.78646000     31.54810000   
   706       C         10.39007000     17.13835000     17.54330000   
   707       C         36.73926000     29.35757000     17.54330000   
   708       C         34.14682000      0.42889000     17.54330000   
   709       C        -17.44481000     33.20883000     47.91188000   
   710       C          7.05480000     15.21269000     47.91188000   
   711       C         10.39010000     45.42805000     47.91188000   
   712       C        -16.70195000     32.77993000     33.90709000   
   713       C          9.64724000     44.99915000     33.90709000   
   714       C          7.05480000     16.07048000     33.90709000   
   715       C         36.73923000      1.92565000     15.18431000   
   716       C         34.14679000     30.85433000     15.18431000   
   717       C         10.39005000     14.14487000     15.18431000   
   718       C         37.48210000      1.49676000      1.17952000   
   719       C          9.64718000     13.71598000      1.17952000   
   720       C         34.14679000     31.71211000      1.17952000   
   721       C         11.00723000     17.25660000     31.53435000   
   722       C         33.73583000      0.90424000     31.53435000   
   723       C         36.53309000     28.76397000     31.53435000   
   724       C          9.44104000     18.16084000     17.55705000   
   725       C        -16.08482000     29.66821000     17.55705000   
   726       C          6.64378000     46.02057000     17.55705000   
   727       C        -16.08479000     32.89818000     47.89814000   
   728       C          6.64381000     16.54583000     47.89814000   
   729       C          9.44106000     44.40555000     47.89814000   
   730       C        -17.65099000     33.80243000     33.92083000   
   731       C         11.00726000     45.30980000     33.92083000   
   732       C          6.64381000     14.73735000     33.92083000   
   733       C         38.09925000      1.61501000     15.17057000   
   734       C         33.73581000     32.18746000     15.17057000   
   735       C          9.44101000     13.12238000     15.17057000   
   736       C         36.53306000      2.51925000      1.19326000   
   737       C         11.00720000     14.02662000      1.19326000   
   738       C         33.73581000     30.37898000      1.19326000   
   739       C         11.78179000     17.39972000     32.69487000   
   740       C         33.22461000      1.50347000     32.69487000   
   741       C         36.26975000     28.02162000     32.69487000   
   742       C          9.17770000     18.90319000     16.39653000   
   743       C        -15.31026000     29.52509000     16.39653000   
   744       C          6.13256000     45.42134000     16.39653000   
   745       C        -15.31023000     33.04131000     49.05866000   
   746       C          6.13258000     17.14506000     49.05866000   
   747       C          9.17773000     43.66320000     49.05866000   
   748       C        -17.91432000     34.54478000     32.76031000   
   749       C         11.78182000     45.16668000     32.76031000   
   750       C          6.13258000     14.13812000     32.76031000   
   751       C         38.87381000      1.75813000     16.33109000   
   752       C         33.22458000     32.78669000     16.33109000   
   753       C          9.17768000     12.38003000     16.33109000   
   754       C         36.26973000      3.26160000      0.03274000   
   755       C         11.78176000     13.88350000      0.03274000   
   756       C         33.22458000     29.77975000      0.03274000   
   757       C         11.16490000     17.83377000     33.87503000   
   758       C         33.15715000      0.75220000     33.87503000   
   759       C         36.95410000     28.33883000     33.87503000   
   760       C          9.86205000     18.58598000     15.21637000   
   761       C        -15.92715000     29.09103000     15.21637000   
   762       C          6.06510000     46.17260000     15.21637000   
   763       C        -15.92712000     33.47536000      1.14741000   
   764       C          6.06512000     16.39379000      1.14741000   
   765       C          9.86208000     43.98042000      1.14741000   
   766       C        -17.22997000     34.22756000     31.58015000   
   767       C         11.16493000     44.73262000     31.58015000   
   768       C          6.06512000     14.88938000     31.58015000   
   769       C         38.25693000      2.19219000     17.51125000   
   770       C         33.15712000     32.03543000     17.51125000   
   771       C          9.86202000     12.69724000     17.51125000   
   772       C         36.95407000      2.94439000     47.94399000   
   773       C         11.16488000     13.44945000     47.94399000   
   774       C         33.15712000     30.53102000     47.94399000   
   775       C          9.80488000     18.14442000     33.89074000   
   776       C          6.47608000     46.34388000     33.89074000   
   777       C        -16.28097000     29.36132000     33.89074000   
   778       C         10.81108000     17.56349000     15.20066000   
   779       C         36.89693000     28.78039000     15.20066000   
   780       C         33.56813000      0.58093000     15.20066000   
   781       C        -17.28714000     33.78600000      1.16312000   
   782       C          6.47611000     15.06066000      1.16312000   
   783       C         10.81111000     45.00291000      1.16312000   
   784       C        -16.28094000     33.20507000     31.56444000   
   785       C          9.80491000     44.42198000     31.56444000   
   786       C          6.47611000     16.22252000     31.56444000   
   787       C         36.89691000      2.50283000     17.52696000   
   788       C         33.56811000     30.70229000     17.52696000   
   789       C         10.81106000     13.71973000     17.52696000   
   790       C         37.90311000      1.92190000     47.92828000   
   791       C          9.80486000     13.13881000     47.92828000   
   792       C         33.56811000     31.86415000     47.92828000   
   793       C          7.49735000     18.29739000     32.72762000   
   794       C          7.49737000     44.26900000     32.72762000   
   795       C        -14.99472000     31.28322000     32.72762000   
   796       C         12.09733000     15.64159000     16.36378000   
   797       C         34.58940000     28.62742000     16.36378000   
   798       C         34.58942000      2.65580000     16.36378000   
   799       C        -19.59468000     33.93898000      0.00000000   
   800       C          7.49737000     12.98583000      0.00000000   
   801       C         39.18935000      0.00000000      0.00000000   
   802       C         -0.00003000     31.28322000     47.04969000   
   803       C         27.09208000     15.64159000      2.04171000   
   804       C          0.00000000      0.00000000     14.32207000   
   805       C         -0.00003000     31.28322000     18.40549000   
   806       C         27.09208000     15.64159000     30.68591000   
   807       C          0.00000000      0.00000000     34.76933000   
   808       C         -0.00003000     31.28322000     44.37813000   
   809       C         27.09208000     15.64159000      4.71327000   
   810       C          0.00000000      0.00000000     11.65052000   
   811       C         -0.00003000     31.28322000     21.07705000   
   812       C         27.09208000     15.64159000     28.01435000   
   813       C          0.00000000      0.00000000     37.44088000   
   814       N          5.36043000     23.16584000     16.67488000   
   815       N          4.34963000     39.98416000     16.67488000   
   816       N         -9.71006000     30.69962000     16.67488000   
   817       N         17.38199000     16.22519000     32.41652000   
   818       N         32.45248000     23.75897000     32.41652000   
   819       N         31.44168000      6.94065000     32.41652000   
   820       N        -21.73159000     38.80743000     33.03866000   
   821       N          4.34966000      8.70094000     33.03866000   
   822       N         17.38202000     46.34120000     33.03866000   
   823       N         -9.71003000     31.86678000     48.78031000   
   824       N          5.36046000     39.40056000     48.78031000   
   825       N          4.34966000     22.58223000     48.78031000   
   826       N         32.45246000      7.52425000      0.31109000   
   827       N         31.44165000     24.34257000      0.31109000   
   828       N         17.38196000     15.05803000      0.31109000   
   829       N         44.47401000      0.58360000     16.05274000   
   830       N          5.36041000      8.11738000     16.05274000   
   831       N         31.44165000     38.22387000     16.05274000   
   832       N          3.74087000     23.77211000     25.09454000   
   833       N          4.63437000     38.27844000     25.09454000   
   834       N         -8.37524000     31.79906000     25.09454000   
   835       N         18.71681000     15.12574000     23.99686000   
   836       N         30.83292000     23.15270000     23.99686000   
   837       N         31.72642000      8.64636000     23.99686000   
   838       N         30.83295000     39.41369000     41.45833000   
   839       N          4.63439000      6.99522000     41.45833000   
   840       N         45.80889000      0.51584000     41.45833000   
   841       N         -8.37521000     30.76733000     40.36064000   
   842       N          3.74090000     38.79429000     40.36064000   
   843       N          4.63439000     24.28795000     40.36064000   
   844       N         30.83289000      8.13052000      8.73076000   
   845       N         31.72639000     22.63686000      8.73076000   
   846       N         18.71679000     16.15748000      8.73076000   
   847       N         18.71679000     46.40896000      7.63307000   
   848       N          3.74084000      7.51111000      7.63307000   
   849       N        -22.45771000     39.92959000      7.63307000   
   850       F          9.65669000     21.51221000     15.31013000   
   851       F          3.63359000     44.53164000     15.31013000   
   852       F        -13.29028000     27.80576000     15.31013000   
   853       F         13.80177000     19.11904000     33.78127000   
   854       F         36.74874000     25.41260000     33.78127000   
   855       F         30.72564000      2.39317000     33.78127000   
   856       F        -17.43533000     37.15380000     31.67392000   
   857       F          3.63361000     13.24842000     31.67392000   
   858       F         13.80180000     43.44735000     31.67392000   
   859       F        -13.29025000     34.76063000      1.05365000   
   860       F          9.65672000     41.05419000      1.05365000   
   861       F          3.63361000     18.03475000      1.05365000   
   862       F         36.74871000      5.87062000     48.03775000   
   863       F         30.72561000     28.89006000     48.03775000   
   864       F         13.80175000     12.16418000     48.03775000   
   865       F         40.89380000      3.47746000     17.41748000   
   866       F          9.65666000      9.77101000     17.41748000   
   867       F         30.72561000     33.67639000     17.41748000   
   868       F         17.57434000     16.92625000     13.32684000   
   869       F         30.73837000      6.75670000     13.32684000   
   870       F         32.96344000     23.24186000     13.32684000   
   871       F          5.87139000     23.68295000     35.76456000   
   872       F         -9.51771000     29.99856000     35.76456000   
   873       F          3.64632000     40.16810000     35.76456000   
   874       F         -9.51768000     32.56783000     29.69063000   
   875       F          3.64635000     22.39829000     29.69063000   
   876       F          5.87142000     38.88344000     29.69063000   
   877       F        -21.22063000     39.32454000      3.03694000   
   878       F         17.57437000     45.64015000      3.03694000   
   879       F          3.64635000      8.88488000      3.03694000   
   880       F         44.66636000      1.28466000     46.05446000   
   881       F         30.73834000     38.03992000     46.05446000   
   882       F          5.87136000      7.60027000     46.05446000   
   883       F         32.96341000      8.04136000     19.40077000   
   884       F         17.57431000     14.35697000     19.40077000   
   885       F         30.73834000     24.52652000     19.40077000   
   886       H          1.09912000     28.91460000     17.26152000   
   887       H          1.50171000     33.41938000     17.26152000   
   888       H         -2.60084000     31.51564000     17.26152000   
   889       H         24.49121000     15.40917000     31.82988000   
   890       H         28.19117000     18.01021000     31.82988000   
   891       H         28.59376000     13.50543000     31.82988000   
   892       H         28.19120000     44.55618000     33.62530000   
   893       H          1.50174000      2.13616000     33.62530000   
   894       H         51.58329000      0.23242000     33.62530000   
   895       H         -2.60081000     31.05075000     48.19367000   
   896       H          1.09915000     33.65180000     48.19367000   
   897       H          1.50174000     29.14702000     48.19367000   
   898       H         28.19115000     13.27301000      0.89773000   
   899       H         28.59374000     17.77779000      0.89773000   
   900       H         24.49119000     15.87405000      0.89773000   
   901       H         24.49119000     46.69239000     15.46610000   
   902       H          1.09910000      2.36862000     15.46610000   
   903       H        -25.59036000     44.78865000     15.46610000   
   904       H          3.74168000     27.73115000     17.36559000   
   905       H          1.20533000     36.29962000     17.36559000   
   906       H         -4.94701000     29.81884000     17.36559000   
   907       H         22.14504000     17.10597000     31.72581000   
   908       H         30.83373000     19.19365000     31.72581000   
   909       H         28.29738000     10.62518000     31.72581000   
   910       H        -23.35034000     43.37274000     33.72938000   
   911       H          1.20535000      5.01640000     33.72938000   
   912       H         22.14507000     45.46042000     33.72938000   
   913       H         -4.94698000     32.74756000     48.08959000   
   914       H          3.74171000     34.83524000     48.08959000   
   915       H          1.20535000     26.26677000     48.08959000   
   916       H         30.83371000     12.08957000      1.00181000   
   917       H         28.29735000     20.65804000      1.00181000   
   918       H         22.14501000     14.17725000      1.00181000   
   919       H         49.23706000      1.46438000     15.36202000   
   920       H          3.74166000      3.55207000     15.36202000   
   921       H         28.29735000     41.90840000     15.36202000   
   922       H          0.66728000     25.30139000     19.16037000   
   923       H          4.84677000     34.85199000     19.16037000   
   924       H         -5.51404000     33.69623000     19.16037000   
   925       H         21.57801000     13.22857000     29.93103000   
   926       H         27.75933000     21.62342000     29.93103000   
   927       H         31.93882000     12.07281000     29.93103000   
   928       H         27.75935000     40.94297000     35.52416000   
   929       H          4.84679000      3.56877000     35.52416000   
   930       H         48.67008000      2.41301000     35.52416000   
   931       H         -5.51402000     28.87016000     46.29481000   
   932       H          0.66730000     37.26501000     46.29481000   
   933       H          4.84679000     27.71440000     46.29481000   
   934       H         27.75930000      9.65980000      2.79659000   
   935       H         31.93879000     19.21041000      2.79659000   
   936       H         21.57798000     18.05465000      2.79659000   
   937       H         21.57798000     44.51179000     13.56724000   
   938       H          0.66725000      5.98183000     13.56724000   
   939       H        -22.24531000     43.35603000     13.56724000   
   940       H          1.73335000     23.28127000     18.26642000   
   941       H          6.06320000     36.78529000     18.26642000   
   942       H         -7.79655000     33.78305000     18.26642000   
   943       H         19.29550000     13.14176000     30.82498000   
   944       H         28.82540000     23.64353000     30.82498000   
   945       H         33.15525000     10.13951000     30.82498000   
   946       H         28.82543000     38.92286000     34.63020000   
   947       H          6.06323000      5.50207000     34.63020000   
   948       H         46.38758000      2.49983000     34.63020000   
   949       H         -7.79652000     28.78335000     47.18876000   
   950       H          1.73338000     39.28512000     47.18876000   
   951       H          6.06323000     25.78110000     47.18876000   
   952       H         28.82537000      7.63969000      1.90264000   
   953       H         33.15522000     21.14371000      1.90264000   
   954       H         19.29547000     18.14146000      1.90264000   
   955       H         19.29547000     44.42498000     14.46120000   
   956       H          1.73332000      8.00195000     14.46120000   
   957       H        -21.02888000     41.42273000     14.46120000   
   958       H          4.82401000     25.71479000     16.48342000   
   959       H          2.41038000     38.24513000     16.48342000   
   960       H         -7.23439000     29.88969000     16.48342000   
   961       H         19.85766000     17.03511000     32.60798000   
   962       H         31.91606000     21.21001000     32.60798000   
   963       H         29.50243000      8.67968000     32.60798000   
   964       H        -22.26801000     41.35638000     32.84720000   
   965       H          2.41041000      6.96191000     32.84720000   
   966       H         19.85769000     45.53128000     32.84720000   
   967       H         -7.23436000     32.67670000     48.97176000   
   968       H          4.82404000     36.85160000     48.97176000   
   969       H          2.41041000     24.32127000     48.97176000   
   970       H         31.91603000     10.07321000      0.11964000   
   971       H         29.50240000     22.60354000      0.11964000   
   972       H         19.85763000     14.24811000      0.11964000   
   973       H         46.94968000      1.39353000     16.24420000   
   974       H          4.82398000      5.56843000     16.24420000   
   975       H         29.50240000     39.96290000     16.24420000   
   976       H          3.60243000     22.16212000     17.13143000   
   977       H          6.09788000     38.96354000     17.13143000   
   978       H         -9.70031000     32.72395000     17.13143000   
   979       H         17.39174000     14.20085000     31.95997000   
   980       H         30.69448000     24.76269000     31.95997000   
   981       H         33.18993000      7.96126000     31.95997000   
   982       H         30.69451000     37.80370000     33.49521000   
   983       H          6.09791000      7.68032000     33.49521000   
   984       H         44.48382000      1.44073000     33.49521000   
   985       H         -9.70028000     29.84244000     48.32376000   
   986       H          3.60246000     40.40428000     48.32376000   
   987       H          6.09791000     23.60285000     48.32376000   
   988       H         30.69445000      6.52053000      0.76764000   
   989       H         33.18990000     23.32196000      0.76764000   
   990       H         17.39171000     17.08237000      0.76764000   
   991       H         17.39171000     45.48407000     15.59619000   
   992       H          3.60240000      9.12110000     15.59619000   
   993       H        -20.99420000     39.24448000     15.59619000   
   994       H          7.73288000     23.24420000     15.52466000   
   995       H          3.09554000     41.99958000     15.52466000   
   996       H        -10.82842000     28.60583000     15.52466000   
   997       H         16.26363000     18.31898000     33.56674000   
   998       H         34.82493000     23.68060000     33.56674000   
   999       H         30.18759000      4.92523000     33.56674000   
  1000       H        -19.35914000     38.88579000     31.88845000   
  1001       H          3.09556000     10.71636000     31.88845000   
  1002       H         16.26366000     44.24742000     31.88845000   
  1003       H        -10.82839000     33.96056000      0.83912000   
  1004       H          7.73291000     39.32219000      0.83912000   
  1005       H          3.09556000     20.56681000      0.83912000   
  1006       H         34.82491000      7.60262000     48.25228000   
  1007       H         30.18756000     26.35799000     48.25228000   
  1008       H         16.26360000     12.96424000     48.25228000   
  1009       H         43.35565000      2.67739000     17.20295000   
  1010       H          7.73286000      8.03902000     17.20295000   
  1011       H         30.18756000     36.20845000     17.20295000   
  1012       H          5.03533000     20.57653000     17.58159000   
  1013       H          6.75459000     40.99727000     17.58159000   
  1014       H        -11.78992000     32.27582000     17.58159000   
  1015       H         15.30213000     14.64899000     31.50981000   
  1016       H         32.12738000     26.34828000     31.50981000   
  1017       H         33.84664000      5.92754000     31.50981000   
  1018       H         32.12741000     36.21811000     33.94538000   
  1019       H          6.75462000      9.71405000     33.94538000   
  1020       H         42.39421000      0.99260000     33.94538000   
  1021       H        -11.78989000     30.29057000     47.87359000   
  1022       H          5.03536000     41.98987000     47.87359000   
  1023       H          6.75462000     21.56913000     47.87359000   
  1024       H         32.12735000      4.93494000      1.21781000   
  1025       H         33.84661000     25.35568000      1.21781000   
  1026       H         15.30210000     16.63423000      1.21781000   
  1027       H         15.30210000     45.93221000     15.14602000   
  1028       H          5.03530000     10.70669000     15.14602000   
  1029       H        -20.33749000     37.21076000     15.14602000   
  1030       H          6.67413000     18.79292000     17.43727000   
  1031       H          7.47984000     43.30831000     17.43727000   
  1032       H        -14.15397000     31.74839000     17.43727000   
  1033       H         12.93808000     15.17642000     31.65413000   
  1034       H         33.76618000     28.13189000     31.65413000   
  1035       H         34.57189000      3.61649000     31.65413000   
  1036       H         33.76620000     34.43450000     33.80105000   
  1037       H          7.47987000     12.02509000     33.80105000   
  1038       H         40.03016000      0.46517000     33.80105000   
  1039       H        -14.15394000     30.81801000     48.01792000   
  1040       H          6.67415000     43.77348000     48.01792000   
  1041       H          7.47987000     19.25808000     48.01792000   
  1042       H         33.76615000      3.15133000      1.07348000   
  1043       H         34.57187000     27.66673000      1.07348000   
  1044       H         12.93805000     16.10680000      1.07348000   
  1045       H         12.93805000     46.45964000     15.29035000   
  1046       H          6.67410000     12.49030000     15.29035000   
  1047       H        -19.61223000     34.89972000     15.29035000   
  1048       H          8.88159000     20.02704000     30.95360000   
  1049       H          5.30733000     44.60297000     30.95360000   
  1050       H        -14.18892000     29.21961000     30.95360000   
  1051       H         12.90313000     17.70520000     18.13780000   
  1052       H         35.97364000     26.89777000     18.13780000   
  1053       H         32.39938000      2.32184000     18.13780000   
  1054       H        -18.21044000     35.66863000     47.31738000   
  1055       H          5.30736000     13.31975000     47.31738000   
  1056       H         12.90316000     44.86119000     47.31738000   
  1057       H        -14.18889000     33.34679000     34.50158000   
  1058       H          8.88161000     42.53936000     34.50158000   
  1059       H          5.30736000     17.96343000     34.50158000   
  1060       H         35.97361000      4.38545000     14.58982000   
  1061       H         32.39936000     28.96138000     14.58982000   
  1062       H         12.90310000     13.57802000     14.58982000   
  1063       H         39.99515000      2.06361000      1.77402000   
  1064       H          8.88156000     11.25618000      1.77402000   
  1065       H         32.39936000     33.60506000      1.77402000   
  1066       H          4.90745000     18.59349000     31.87603000   
  1067       H          8.53589000     41.87804000     31.87603000   
  1068       H        -13.44335000     33.37808000     31.87603000   
  1069       H         13.64870000     13.54672000     17.21537000   
  1070       H         31.99950000     28.33132000     17.21537000   
  1071       H         35.62794000      5.04676000     17.21537000   
  1072       H         31.99953000     34.23507000     48.23981000   
  1073       H          8.53592000     10.59482000     48.23981000   
  1074       H         40.74078000      2.09486000     48.23981000   
  1075       H        -13.44332000     29.18831000     33.57916000   
  1076       H          4.90748000     43.97291000     33.57916000   
  1077       H          8.53592000     20.68835000     33.57916000   
  1078       H         31.99948000      2.95190000     15.51224000   
  1079       H         35.62792000     26.23646000     15.51224000   
  1080       H         13.64868000     17.73650000     15.51224000   
  1081       H         13.64868000     44.82994000      0.85159000   
  1082       H          4.90743000     12.68973000      0.85159000   
  1083       H        -18.55618000     36.32998000      0.85159000   
  1084       H          4.01721000     19.88861000     30.01988000   
  1085       H          7.85940000     40.45951000     30.01988000   
  1086       H        -11.87661000     33.50150000     30.01988000   
  1087       H         15.21544000     13.42331000     19.07152000   
  1088       H         31.10926000     27.03620000     19.07152000   
  1089       H         34.95145000      6.46530000     19.07152000   
  1090       H         31.10929000     35.53020000     46.38367000   
  1091       H          7.85943000      9.17629000     46.38367000   
  1092       H         42.30751000      2.21828000     46.38367000   
  1093       H        -11.87659000     29.06490000     35.43530000   
  1094       H          4.01724000     42.67778000     35.43530000   
  1095       H          7.85943000     22.10689000     35.43530000   
  1096       H         31.10923000      4.24702000     13.65610000   
  1097       H         34.95143000     24.81792000     13.65610000   
  1098       H         15.21541000     17.85991000     13.65610000   
  1099       H         15.21541000     44.70653000      2.70773000   
  1100       H          4.01718000     11.39461000      2.70773000   
  1101       H        -19.23267000     37.74852000      2.70773000   
  1102       H          7.97996000     21.31841000     29.10580000   
  1103       H          4.63978000     43.17645000     29.10580000   
  1104       H        -12.61975000     29.35475000     29.10580000   
  1105       H         14.47230000     17.57006000     19.98560000   
  1106       H         35.07201000     25.60640000     19.98560000   
[...]
  682  C   1.21727   0.93144   0.97704   0.99326
  683  C   1.21727   0.93391   0.97458   0.99326
  684  C   1.21727   0.99738   0.91111   0.99326
  685  C   1.21716   0.99035   0.95913   0.93712
  686  C   1.21717   0.96144   0.98803   0.93712
  687  C   1.21716   0.97243   0.97706   0.93712
  688  C   1.21716   0.97243   0.97706   0.93712
  689  C   1.21717   0.99035   0.95913   0.93712
  690  C   1.21717   0.96145   0.98803   0.93712
  691  C   1.21717   0.99035   0.95913   0.93712
  692  C   1.21717   0.96145   0.98803   0.93711
  693  C   1.21717   0.97242   0.97706   0.93712
  694  C   1.21717   0.97242   0.97706   0.93712
  695  C   1.21717   0.99035   0.95913   0.93712
  696  C   1.21716   0.96145   0.98803   0.93712
  697  C   1.21717   0.99035   0.95913   0.93712
  698  C   1.21716   0.96145   0.98803   0.93712
  699  C   1.21717   0.97242   0.97706   0.93712
  700  C   1.21717   0.97242   0.97706   0.93712
  701  C   1.21717   0.99035   0.95913   0.93712
  702  C   1.21717   0.96145   0.98803   0.93712
  703  C   1.21860   0.94149   0.98240   0.97764
  704  C   1.21860   0.99440   0.92949   0.97764
  705  C   1.21860   0.94995   0.97395   0.97764
  706  C   1.21860   0.94995   0.97395   0.97764
  707  C   1.21860   0.94149   0.98240   0.97764
  708  C   1.21860   0.99440   0.92949   0.97764
  709  C   1.21860   0.94149   0.98240   0.97764
  710  C   1.21860   0.99440   0.92949   0.97764
  711  C   1.21860   0.94995   0.97394   0.97764
  712  C   1.21860   0.94995   0.97394   0.97764
  713  C   1.21860   0.94149   0.98240   0.97764
  714  C   1.21860   0.99440   0.92949   0.97764
  715  C   1.21860   0.94149   0.98240   0.97764
  716  C   1.21860   0.99440   0.92949   0.97764
  717  C   1.21860   0.94995   0.97395   0.97764
  718  C   1.21860   0.94995   0.97395   0.97764
  719  C   1.21860   0.94149   0.98240   0.97764
  720  C   1.21860   0.99440   0.92949   0.97764
  721  C   1.21581   0.93197   0.99996   0.96832
  722  C   1.21581   0.98678   0.94514   0.96831
  723  C   1.21581   0.97914   0.95279   0.96832
  724  C   1.21581   0.97914   0.95279   0.96832
  725  C   1.21581   0.93197   0.99996   0.96832
  726  C   1.21581   0.98678   0.94514   0.96832
  727  C   1.21581   0.93197   0.99996   0.96832
  728  C   1.21581   0.98678   0.94514   0.96832
  729  C   1.21581   0.97913   0.95279   0.96832
  730  C   1.21581   0.97913   0.95279   0.96832
  731  C   1.21581   0.93197   0.99996   0.96831
  732  C   1.21581   0.98678   0.94514   0.96832
  733  C   1.21581   0.93197   0.99996   0.96832
  734  C   1.21581   0.98678   0.94514   0.96832
  735  C   1.21581   0.97913   0.95279   0.96832
  736  C   1.21581   0.97913   0.95279   0.96832
  737  C   1.21581   0.93197   0.99996   0.96832
  738  C   1.21581   0.98678   0.94514   0.96832
  739  C   1.18652   0.90644   1.00788   0.94041
  740  C   1.18652   1.00384   0.91049   0.94041
  741  C   1.18652   0.96121   0.95312   0.94041
  742  C   1.18652   0.96121   0.95312   0.94041
  743  C   1.18653   0.90644   1.00788   0.94041
  744  C   1.18652   1.00384   0.91049   0.94041
  745  C   1.18652   0.90644   1.00788   0.94041
  746  C   1.18652   1.00384   0.91049   0.94041
  747  C   1.18652   0.96121   0.95312   0.94041
  748  C   1.18652   0.96121   0.95312   0.94041
  749  C   1.18652   0.90644   1.00788   0.94041
  750  C   1.18652   1.00384   0.91049   0.94041
  751  C   1.18652   0.90644   1.00788   0.94041
  752  C   1.18652   1.00384   0.91049   0.94041
  753  C   1.18652   0.96121   0.95312   0.94041
  754  C   1.18652   0.96121   0.95312   0.94041
  755  C   1.18652   0.90644   1.00788   0.94041
  756  C   1.18652   1.00384   0.91049   0.94041
  757  C   1.21651   0.94238   0.98048   0.96899
  758  C   1.21651   0.98899   0.93387   0.96899
  759  C   1.21651   0.95292   0.96994   0.96899
  760  C   1.21651   0.95292   0.96994   0.96899
  761  C   1.21651   0.94238   0.98048   0.96899
  762  C   1.21651   0.98899   0.93387   0.96899
  763  C   1.21650   0.94238   0.98049   0.96899
  764  C   1.21650   0.98899   0.93387   0.96899
  765  C   1.21650   0.95293   0.96994   0.96899
  766  C   1.21651   0.95293   0.96994   0.96899
  767  C   1.21651   0.94238   0.98049   0.96899
  768  C   1.21651   0.98899   0.93387   0.96899
  769  C   1.21650   0.94238   0.98049   0.96899
  770  C   1.21651   0.98899   0.93387   0.96899
  771  C   1.21650   0.95293   0.96994   0.96899
  772  C   1.21651   0.95293   0.96994   0.96899
  773  C   1.21650   0.94238   0.98049   0.96899
  774  C   1.21650   0.98899   0.93387   0.96899
  775  C   1.21891   0.93185   0.99818   0.97011
  776  C   1.21891   0.98985   0.94018   0.97011
  777  C   1.21891   0.97335   0.95668   0.97011
  778  C   1.21891   0.97335   0.95668   0.97011
  779  C   1.21891   0.93185   0.99818   0.97011
  780  C   1.21891   0.98985   0.94018   0.97011
  781  C   1.21891   0.93185   0.99818   0.97011
  782  C   1.21891   0.98985   0.94018   0.97011
  783  C   1.21891   0.97334   0.95668   0.97011
  784  C   1.21891   0.97334   0.95668   0.97010
  785  C   1.21891   0.93185   0.99818   0.97010
  786  C   1.21891   0.98985   0.94018   0.97010
  787  C   1.21891   0.93185   0.99817   0.97010
  788  C   1.21891   0.98985   0.94018   0.97010
  789  C   1.21891   0.97334   0.95668   0.97010
  790  C   1.21891   0.97334   0.95668   0.97011
  791  C   1.21891   0.93185   0.99818   0.97011
  792  C   1.21891   0.98985   0.94018   0.97011
  793  C   1.18709   0.89632   0.88823   0.90730
  794  C   1.18709   0.89632   0.88822   0.90730
  795  C   1.18709   0.88418   0.90037   0.90730
  796  C   1.18709   0.88418   0.90037   0.90730
  797  C   1.18709   0.89632   0.88822   0.90730
  798  C   1.18709   0.89632   0.88822   0.90730
  799  C   1.18710   0.89631   0.88822   0.90729
  800  C   1.18709   0.89632   0.88823   0.90729
  801  C   1.18710   0.88418   0.90036   0.90729
  802  C   1.19814   0.89782   0.89782   0.98680
  803  C   1.19814   0.89782   0.89782   0.98680
  804  C   1.19813   0.89783   0.89783   0.98681
  805  C   1.19814   0.89782   0.89782   0.98680
  806  C   1.19814   0.89782   0.89782   0.98680
  807  C   1.19813   0.89783   0.89783   0.98681
  808  C   1.19273   0.90110   0.90110   0.99035
  809  C   1.19273   0.90110   0.90110   0.99035
  810  C   1.19273   0.90110   0.90110   0.99035
  811  C   1.19271   0.90110   0.90110   0.99036
  812  C   1.19271   0.90110   0.90110   0.99036
  813  C   1.19273   0.90110   0.90110   0.99035
  814  N   1.69278   1.06090   1.30727   1.12506
  815  N   1.69278   1.39662   0.97154   1.12506
  816  N   1.69278   1.09473   1.27344   1.12506
  817  N   1.69278   1.09473   1.27344   1.12506
  818  N   1.69278   1.06090   1.30727   1.12506
  819  N   1.69278   1.39662   0.97154   1.12506
  820  N   1.69278   1.06090   1.30727   1.12506
  821  N   1.69277   1.39663   0.97155   1.12506
  822  N   1.69278   1.09473   1.27343   1.12506
  823  N   1.69278   1.09473   1.27343   1.12506
  824  N   1.69277   1.06090   1.30728   1.12506
  825  N   1.69277   1.39663   0.97155   1.12506
  826  N   1.69278   1.06090   1.30727   1.12506
  827  N   1.69278   1.39662   0.97154   1.12505
  828  N   1.69278   1.09473   1.27344   1.12506
  829  N   1.69278   1.09473   1.27344   1.12506
  830  N   1.69278   1.06090   1.30727   1.12506
  831  N   1.69278   1.39662   0.97154   1.12505
  832  N   1.69114   1.37013   1.12049   1.00653
  833  N   1.69114   1.11563   1.37501   1.00653
  834  N   1.69114   1.25018   1.24044   1.00653
  835  N   1.69114   1.25018   1.24044   1.00653
  836  N   1.69114   1.37013   1.12050   1.00653
  837  N   1.69114   1.11563   1.37501   1.00653
  838  N   1.69114   1.37013   1.12050   1.00653
  839  N   1.69114   1.11563   1.37501   1.00653
  840  N   1.69113   1.25018   1.24044   1.00653
  841  N   1.69114   1.25019   1.24044   1.00653
  842  N   1.69114   1.37013   1.12050   1.00653
  843  N   1.69114   1.11563   1.37501   1.00653
  844  N   1.69114   1.37013   1.12050   1.00653
  845  N   1.69114   1.11563   1.37501   1.00653
  846  N   1.69114   1.25018   1.24044   1.00653
  847  N   1.69114   1.25018   1.24044   1.00653
  848  N   1.69114   1.37013   1.12050   1.00653
  849  N   1.69114   1.11563   1.37500   1.00653
  850  F   1.91744   1.41057   1.94094   1.82940
  851  F   1.91744   1.69640   1.65511   1.82940
  852  F   1.91744   1.92030   1.43121   1.82940
  853  F   1.91744   1.92029   1.43121   1.82939
  854  F   1.91744   1.41057   1.94094   1.82940
  855  F   1.91744   1.69640   1.65511   1.82940
  856  F   1.91744   1.41057   1.94094   1.82940
  857  F   1.91744   1.69639   1.65511   1.82940
  858  F   1.91744   1.92029   1.43121   1.82940
  859  F   1.91744   1.92029   1.43121   1.82940
  860  F   1.91744   1.41057   1.94094   1.82940
  861  F   1.91744   1.69639   1.65511   1.82940
  862  F   1.91744   1.41057   1.94094   1.82940
  863  F   1.91744   1.69640   1.65510   1.82940
  864  F   1.91744   1.92030   1.43121   1.82940
  865  F   1.91744   1.92030   1.43120   1.82940
  866  F   1.91744   1.41057   1.94094   1.82940
  867  F   1.91744   1.69639   1.65511   1.82940
  868  F   1.91770   1.90821   1.86145   1.40918
  869  F   1.91770   1.82446   1.94520   1.40917
  870  F   1.91770   1.92181   1.84784   1.40918
  871  F   1.91770   1.92182   1.84784   1.40918
  872  F   1.91770   1.90823   1.86144   1.40916
  873  F   1.91770   1.82444   1.94521   1.40918
  874  F   1.91770   1.90821   1.86145   1.40917
  875  F   1.91770   1.82447   1.94521   1.40916
  876  F   1.91771   1.92182   1.84784   1.40918
  877  F   1.91771   1.92182   1.84787   1.40915
  878  F   1.91772   1.90821   1.86145   1.40917
  879  F   1.91771   1.82449   1.94521   1.40914
  880  F   1.91771   1.90825   1.86144   1.40914
  881  F   1.91772   1.82444   1.94522   1.40917
  882  F   1.91771   1.92183   1.84786   1.40914
  883  F   1.91770   1.92182   1.84784   1.40917
  884  F   1.91770   1.90823   1.86145   1.40916
  885  F   1.91771   1.82445   1.94521   1.40918
  886  H   0.85802
  887  H   0.85802
  888  H   0.85802
  889  H   0.85802
  890  H   0.85802
  891  H   0.85802
  892  H   0.85802
  893  H   0.85802
  894  H   0.85802
  895  H   0.85802
  896  H   0.85802
  897  H   0.85802
  898  H   0.85802
  899  H   0.85802
  900  H   0.85802
  901  H   0.85802
  902  H   0.85802
  903  H   0.85802
  904  H   0.86021
  905  H   0.86021
  906  H   0.86021
  907  H   0.86021
  908  H   0.86021
  909  H   0.86021
  910  H   0.86021
  911  H   0.86021
  912  H   0.86021
  913  H   0.86021
  914  H   0.86021
  915  H   0.86021
  916  H   0.86021
  917  H   0.86021
  918  H   0.86021
  919  H   0.86021
  920  H   0.86021
  921  H   0.86021
  922  H   0.85710
  923  H   0.85710
  924  H   0.85709
  925  H   0.85709
  926  H   0.85709
  927  H   0.85710
  928  H   0.85709
  929  H   0.85709
  930  H   0.85709
  931  H   0.85709
  932  H   0.85709
  933  H   0.85709
  934  H   0.85709
  935  H   0.85709
  936  H   0.85709
  937  H   0.85709
  938  H   0.85709
  939  H   0.85709
  940  H   0.86566
  941  H   0.86566
  942  H   0.86566
  943  H   0.86566
  944  H   0.86566
  945  H   0.86566
  946  H   0.86566
  947  H   0.86566
  948  H   0.86566
  949  H   0.86566
  950  H   0.86566
  951  H   0.86566
  952  H   0.86566
  953  H   0.86566
  954  H   0.86566
  955  H   0.86566
  956  H   0.86566
  957  H   0.86566
  958  H   0.84569
  959  H   0.84568
  960  H   0.84568
  961  H   0.84569
  962  H   0.84569
  963  H   0.84568
  964  H   0.84568
  965  H   0.84568
  966  H   0.84569
  967  H   0.84569
  968  H   0.84568
  969  H   0.84569
  970  H   0.84569
  971  H   0.84569
  972  H   0.84569
  973  H   0.84568
  974  H   0.84568
  975  H   0.84568
  976  H   0.89556
  977  H   0.89555
  978  H   0.89555
  979  H   0.89556
  980  H   0.89556
  981  H   0.89555
  982  H   0.89555
  983  H   0.89556
  984  H   0.89555
  985  H   0.89555
  986  H   0.89556
  987  H   0.89556
  988  H   0.89555
  989  H   0.89555
  990  H   0.89555
  991  H   0.89556
  992  H   0.89555
  993  H   0.89555
  994  H   0.83972
  995  H   0.83972
  996  H   0.83972
  997  H   0.83972
  998  H   0.83972
  999  H   0.83972
 1000  H   0.83972
 1001  H   0.83972
 1002  H   0.83972
 1003  H   0.83972
 1004  H   0.83972
 1005  H   0.83972
 1006  H   0.83972
 1007  H   0.83972
 1008  H   0.83972
 1009  H   0.83972
 1010  H   0.83972
 1011  H   0.83972
 1012  H   0.86440
 1013  H   0.86440
 1014  H   0.86440
 1015  H   0.86440
 1016  H   0.86440
 1017  H   0.86440
 1018  H   0.86439
 1019  H   0.86440
 1020  H   0.86440
 1021  H   0.86440
 1022  H   0.86439
 1023  H   0.86440
 1024  H   0.86440
 1025  H   0.86440
 1026  H   0.86440
 1027  H   0.86440
 1028  H   0.86440
 1029  H   0.86440
 1030  H   0.85532
 1031  H   0.85532
 1032  H   0.85532
 1033  H   0.85532
 1034  H   0.85532
 1035  H   0.85532
 1036  H   0.85532
 1037  H   0.85532
 1038  H   0.85532
 1039  H   0.85532
 1040  H   0.85532
 1041  H   0.85532
 1042  H   0.85532
 1043  H   0.85532
 1044  H   0.85532
 1045  H   0.85532
 1046  H   0.85532
 1047  H   0.85532
 1048  H   0.85963
 1049  H   0.85963
 1050  H   0.85963
 1051  H   0.85963
 1052  H   0.85963
 1053  H   0.85963
 1054  H   0.85963
 1055  H   0.85963
 1056  H   0.85963
 1057  H   0.85963
 1058  H   0.85963
 1059  H   0.85963
 1060  H   0.85963
 1061  H   0.85963
 1062  H   0.85963
 1063  H   0.85963
 1064  H   0.85963
 1065  H   0.85963
 1066  H   0.85941
 1067  H   0.85941
 1068  H   0.85941
 1069  H   0.85941
 1070  H   0.85941
 1071  H   0.85941
 1072  H   0.85941
 1073  H   0.85941
 1074  H   0.85941
 1075  H   0.85941
 1076  H   0.85941
 1077  H   0.85941
 1078  H   0.85941
 1079  H   0.85941
 1080  H   0.85941
 1081  H   0.85941
 1082  H   0.85941
 1083  H   0.85941
 1084  H   0.85891
 1085  H   0.85891
 1086  H   0.85891
 1087  H   0.85891
 1088  H   0.85891
 1089  H   0.85891
 1090  H   0.85891
 1091  H   0.85891
 1092  H   0.85891
 1093  H   0.85891
 1094  H   0.85891
 1095  H   0.85891
 1096  H   0.85891
 1097  H   0.85891
 1098  H   0.85891
 1099  H   0.85891
 1100  H   0.85891
 1101  H   0.85891
 1102  H   0.86524
 1103  H   0.86524
 1104  H   0.86524
 1105  H   0.86524
 1106  H   0.86524
 1107  H   0.86524
 1108  H   0.86524
 1109  H   0.86524
 1110  H   0.86524
 1111  H   0.86524
 1112  H   0.86524
 1113  H   0.86524
 1114  H   0.86524
 1115  H   0.86524
 1116  H   0.86524
 1117  H   0.86524
 1118  H   0.86524
 1119  H   0.86524
 1120  H   0.85671
 1121  H   0.85671
 1122  H   0.85671
 1123  H   0.85671
 1124  H   0.85671
 1125  H   0.85671
 1126  H   0.85671
 1127  H   0.85671
 1128  H   0.85671
 1129  H   0.85671
 1130  H   0.85671
 1131  H   0.85671
 1132  H   0.85671
 1133  H   0.85671
 1134  H   0.85671
 1135  H   0.85671
 1136  H   0.85671
 1137  H   0.85671
 1138  H   0.86472
 1139  H   0.86472
 1140  H   0.86472
 1141  H   0.86472
 1142  H   0.86472
 1143  H   0.86472
 1144  H   0.86472
 1145  H   0.86472
 1146  H   0.86472
 1147  H   0.86472
 1148  H   0.86472
 1149  H   0.86472
 1150  H   0.86472
 1151  H   0.86472
 1152  H   0.86472
 1153  H   0.86472
 1154  H   0.86472
 1155  H   0.86472
 1156  H   0.83838
 1157  H   0.83838
 1158  H   0.83838
 1159  H   0.83838
 1160  H   0.83838
 1161  H   0.83838
 1162  H   0.83838
 1163  H   0.83838
 1164  H   0.83838
 1165  H   0.83838
 1166  H   0.83838
 1167  H   0.83838
 1168  H   0.83838
 1169  H   0.83838
 1170  H   0.83838
 1171  H   0.83838
 1172  H   0.83838
 1173  H   0.83838
 1174  H   0.89570
 1175  H   0.89570
 1176  H   0.89570
 1177  H   0.89570
 1178  H   0.89570
 1179  H   0.89570
 1180  H   0.89570
 1181  H   0.89570
 1182  H   0.89570
 1183  H   0.89570
 1184  H   0.89570
 1185  H   0.89570
 1186  H   0.89570
 1187  H   0.89570
 1188  H   0.89570
 1189  H   0.89570
 1190  H   0.89570
 1191  H   0.89570
 1192  H   0.85567
 1193  H   0.85567
 1194  H   0.85567
 1195  H   0.85567
 1196  H   0.85567
 1197  H   0.85567
 1198  H   0.85567
 1199  H   0.85567
 1200  H   0.85567
 1201  H   0.85567
 1202  H   0.85567
 1203  H   0.85567
 1204  H   0.85567
 1205  H   0.85567
 1206  H   0.85567
 1207  H   0.85567
 1208  H   0.85567
 1209  H   0.85567
 1210  H   0.86091
 1211  H   0.86091
 1212  H   0.86091
 1213  H   0.86091
 1214  H   0.86091
 1215  H   0.86091
 1216  H   0.86091
 1217  H   0.86091
 1218  H   0.86091
 1219  H   0.86091
 1220  H   0.86091
 1221  H   0.86091
 1222  H   0.86091
 1223  H   0.86091
 1224  H   0.86091
 1225  H   0.86091
 1226  H   0.86091
 1227  H   0.86091
 1228  H   0.84420
 1229  H   0.84420
 1230  H   0.84420
 1231  H   0.84420
 1232  H   0.84420
 1233  H   0.84420
 1234  H   0.84420
 1235  H   0.84420
 1236  H   0.84420
 1237  H   0.84421
 1238  H   0.84421
 1239  H   0.84420
 1240  H   0.84420
 1241  H   0.84420
 1242  H   0.84420
 1243  H   0.84420
 1244  H   0.84420
 1245  H   0.84420
 1246  H   0.85760
 1247  H   0.85760
 1248  H   0.85760
 1249  H   0.85760
 1250  H   0.85760
 1251  H   0.85760
 1252  H   0.85760
 1253  H   0.85760
 1254  H   0.85760
 1255  H   0.85760
 1256  H   0.85760
 1257  H   0.85760
 1258  H   0.85760
 1259  H   0.85760
 1260  H   0.85760
 1261  H   0.85760
 1262  H   0.85760
 1263  H   0.85760
 1264  H   0.86473
 1265  H   0.86473
 1266  H   0.86473
 1267  H   0.86473
 1268  H   0.86473
 1269  H   0.86473
 1270  H   0.86473
 1271  H   0.86473
 1272  H   0.86473
 1273  H   0.86473
 1274  H   0.86473
 1275  H   0.86473
 1276  H   0.86473
 1277  H   0.86473
 1278  H   0.86473
 1279  H   0.86473
 1280  H   0.86473
 1281  H   0.86473
 1282  H   0.86093
 1283  H   0.86093
 1284  H   0.86093
 1285  H   0.86093
 1286  H   0.86093
 1287  H   0.86093
 1288  H   0.86093
 1289  H   0.86093
 1290  H   0.86093
 1291  H   0.86093
 1292  H   0.86093
 1293  H   0.86093
 1294  H   0.86093
 1295  H   0.86093
 1296  H   0.86093
 1297  H   0.86093
 1298  H   0.86093
 1299  H   0.86093
 1300  H   0.86606
 1301  H   0.86606
 1302  H   0.86606
 1303  H   0.86606
 1304  H   0.86606
 1305  H   0.86606
 1306  H   0.86606
 1307  H   0.86606
 1308  H   0.86606
 1309  H   0.86606
 1310  H   0.86606
 1311  H   0.86606
 1312  H   0.86606
 1313  H   0.86606
 1314  H   0.86606
 1315  H   0.86606
 1316  H   0.86606
 1317  H   0.86606
 1318  H   0.86005
 1319  H   0.86005
 1320  H   0.86005
 1321  H   0.86005
 1322  H   0.86005
 1323  H   0.86005
 1324  H   0.86005
 1325  H   0.86005
 1326  H   0.86005
 1327  H   0.86005
 1328  H   0.86005
 1329  H   0.86005
 1330  H   0.86005
 1331  H   0.86005
 1332  H   0.86005
 1333  H   0.86005
 1334  H   0.86005
 1335  H   0.86005
 1336  H   0.85857
 1337  H   0.85857
 1338  H   0.85857
 1339  H   0.85857
 1340  H   0.85857
 1341  H   0.85857
 1342  H   0.85857
 1343  H   0.85857
 1344  H   0.85857
 1345  H   0.85857
 1346  H   0.85857
 1347  H   0.85857
 1348  H   0.85857
 1349  H   0.85857
 1350  H   0.85857
 1351  H   0.85857
 1352  H   0.85857
 1353  H   0.85857
 1354  H   0.87450
 1355  H   0.87450
 1356  H   0.87451
 1357  H   0.87450
 1358  H   0.87450
 1359  H   0.87451
 1360  H   0.87170
 1361  H   0.87170
 1362  H   0.87170
 1363  H   0.87171
 1364  H   0.87171
 1365  H   0.87170

 **********************
 *                    *
 * JOB ENDED NORMALLY *
 *                    *
 **********************



 TOTAL JOB TIME:          1368.80 SECONDS

 == MOPAC DONE ==
