 *******************************************************************************
 ** Site#: 9602  E-mail support:    MrMOPAC@ATT.net    Version 18.053W 64BITS **
 *******************************************************************************
 ** Cite this program as: MOPAC2016, Version: 18.053W, James J. P. Stewart,   **
 ** Stewart Computational Chemistry, web: HTTP://OpenMOPAC.net. Days left: 174**
 *******************************************************************************
 **                                                                           **
 **                                MOPAC2016                                  **
 **                                                                           **
 *******************************************************************************

                              PM7 CALCULATION RESULTS


 *******************************************************************************
 *  CALCULATION DONE:                                Thu Feb 22 16:18:59 2018  *
 *  GEO_DAT    - DATA SET GEOMETRY IS IN FILE "SADDLE FOR HYDRIDE TRANSFER FROM PROPENAL ANION TO N-METHYLPYRIDINET.ARC"
 *  EPS= 78.40 - USE ANDREAS KLAMT'S COSMO IMPLICIT SOLVATION MODEL
 *  TS         - USE EF ROUTINE FOR TS SEARCH
 *  T=         - A TIME OF 172800.0 SECONDS REQUESTED
 *  DUMP=N     - RESTART FILE WRITTEN EVERY  7200.000 SECONDS
 *  HTML       - WRITE HTML SCRIPT TO READ PDB FILE USING JSMOL
 *  HTML(NORES)- SUPPRESS LIST OF RESIDUES IN HTML FILE
 *******************************************************************************
geo_dat="SADDLE for hydride transfer from propenal anion to N-methylpyridinet.arc" +
eps=78.4 HTML(nores) TS
 Refine the transition state for the reaction [CHO-CH-CH3]^(-) + [C5H5N-CH3]^(+) => CHO-CH=CH2 + C5H6N-CH3

   ATOM                 CHEMICAL                   X               Y               Z
  NUMBER                 SYMBOL               (ANGSTROMS)     (ANGSTROMS)     (ANGSTROMS)
 
     1       O(HETATM    1  O   HET A   1)   -0.38036349  *  -0.05827152  *  -0.18124365  *
     2       C(HETATM    2  C   HET B   2)    3.24244107  *  -0.39717541  *   0.03725241  *
     3       C(HETATM    3  C   HET C   1)   -0.54619193  *   1.16120905  *  -0.04778679  *
     4       C(HETATM    4  C1  HET D   2)    2.40267582  *   1.17386280  *   1.63801355  *
     5       N(HETATM    5  N   HET D   2)    2.54645653  *  -0.12804291  *   1.20085759  *
     6       C(HETATM    6  C2  HET D   2)    2.85360126  *   2.21886125  *   0.88037880  *
     7       C(HETATM    7  C3  HET D   2)    3.34220351  *   1.98256032  *  -0.45879061  *
     8       C(HETATM    8  C4  HET D   2)    3.72618247  *   0.61468828  *  -0.74000017  *
     9       H(HETATM    9  H   HET E   1)   -1.17603251  *   1.47443469  *   0.80009985  *
    10       C(HETATM   10  C   HET F   2)    1.79012911  *  -1.19888925  *   1.85272877  *
    11       H(HETATM   11 1H1  HET K   1)    2.18211204  *   2.11722652  *  -1.28147170  *
    12       H(HETATM   12 2H1  HET K   1)    1.12774367  *   0.80458181  *  -2.14081286  *
    13       H(HETATM   13 3H1  HET K   1)    1.08976053  *   2.52463363  *  -2.72922851  *
    14       H(HETATM   14  H2  HET K   1)   -0.33725014  *   3.16568859  *  -0.77310649  *
    15       H(HETATM   15  H1  HET D   2)    1.94157351  *   1.31051091  *   2.62610853  *
    16       H(HETATM   16  H2  HET D   2)    2.81607013  *   3.23724663  *   1.25715262  *
    17       H(HETATM   17  H3  HET D   2)    3.92129336  *   2.78546969  *  -0.93766576  *
    18       H(HETATM   18  H4  HET D   2)    4.34136662  *   0.41201811  *  -1.61197386  *
    19       H(HETATM   19 1H   HET F   2)    1.74109983  *  -1.05059209  *   2.94637365  *
    20       H(HETATM   20 2H   HET F   2)    2.24599175  *  -2.18825425  *   1.66662964  *
    21       H(HETATM   21 3H   HET F   2)    0.74945028  *  -1.22479016  *   1.46199081  *
    22       C(HETATM   22  C1  HET K   1)    0.95500301  *   1.85307260  *  -1.87984360  *
    23       C(HETATM   23  C2  HET K   1)   -0.01907266  *   2.14227074  *  -0.91372907  *
    24       H(HETATM   24  H   HET B   2)    3.39840733  *  -1.45633556  *  -0.20807040  *
 

 General Reference for PM7:
 "Optimization of Parameters for Semiempirical Methods VI: More Modifications to the 
 NDDO Approximations and Re-optimization of Parameters", J. J. P. Stewart, J. Mol. Mod., 1:32, 19 (2013)
 http://www.springerlink.com/openurl.asp?genre=article&id=doi:10.1007/s00894-012-1667-x

           Empirical Formula: C9 H13 N O  =    24 atoms



      MOLECULAR POINT GROUP   :   C1  


      RHF CALCULATION, NO. OF DOUBLY OCCUPIED LEVELS = 30


          Transition state refinement using EF

          HESSIAN CALCULATED NUMERICALLY

 CYCLE:     1 TIME:   1.719 TIME LEFT:  2.00D  GRAD.:    11.858 HEAT:  33.89812
 CYCLE:     2 TIME:   0.031 TIME LEFT:  2.00D  GRAD.:     3.295 HEAT:  33.50902
 CYCLE:     3 TIME:   0.016 TIME LEFT:  2.00D  GRAD.:     3.979 HEAT:  33.35444
 CYCLE:     4 TIME:   0.031 TIME LEFT:  2.00D  GRAD.:     2.276 HEAT:  33.16947
 CYCLE:     5 TIME:   0.031 TIME LEFT:  2.00D  GRAD.:     2.626 HEAT:  33.01970
 CYCLE:     6 TIME:   0.031 TIME LEFT:  2.00D  GRAD.:     2.111 HEAT:  32.86096
 CYCLE:     7 TIME:   0.016 TIME LEFT:  2.00D  GRAD.:     4.966 HEAT:  32.73876
 CYCLE:     8 TIME:   0.031 TIME LEFT:  2.00D  GRAD.:     7.263 HEAT:  32.63203
 CYCLE:     9 TIME:   0.031 TIME LEFT:  2.00D  GRAD.:    11.028 HEAT:  32.59403
 CYCLE:    10 TIME:   0.031 TIME LEFT:  2.00D  GRAD.:    12.696 HEAT:  32.42678
 CYCLE:    11 TIME:   0.125 TIME LEFT:  2.00D  GRAD.:     3.688 HEAT:  32.37707
 CYCLE:    12 TIME:   0.016 TIME LEFT:  2.00D  GRAD.:     3.368 HEAT:  32.33739
 CYCLE:    13 TIME:   0.031 TIME LEFT:  2.00D  GRAD.:     2.762 HEAT:  32.30979
 CYCLE:    14 TIME:   0.125 TIME LEFT:  2.00D  GRAD.:     0.834 HEAT:  32.30775

     GRADIENT =  0.83436  IS LESS THAN CUTOFF =  1.00000



 -------------------------------------------------------------------------------
 eps=78.4 HTML(nores) TS
 Refine the transition state for the reaction [CHO-CH-CH3]^(-) + [C5H5N-CH3]^(+) => CHO-CH=CH2 + C5H6N-CH3



     GEOMETRY OPTIMISED USING EIGENVECTOR FOLLOWING (TS).     
     SCF FIELD WAS ACHIEVED                                   


                              PM7 CALCULATION
                                                       MOPAC2016 (Version: 18.053W)
                                                       Thu Feb 22 16:19:01 2018
                                                       No. of days remaining = 174




          FINAL HEAT OF FORMATION =         32.30775 KCAL/MOL =     135.17561 KJ/MOL
          VAN DER WAALS AREA      =        188.63 SQUARE ANGSTROMS


          TOTAL ENERGY            =      -1759.70391 EV
          ELECTRONIC ENERGY       =      -2787.80481 EV  POINT GROUP:     C1  
          CORE-CORE REPULSION     =       1028.10090 EV
          DIELECTRIC ENERGY       =         -0.80003 EV
          COSMO AREA              =        188.63 SQUARE ANGSTROMS
          COSMO VOLUME            =        206.05 CUBIC ANGSTROMS

          GRADIENT NORM           =          0.83436
          IONIZATION POTENTIAL    =          7.474907 EV
          HOMO LUMO ENERGIES (EV) =         -7.475 -0.941
          NO. OF FILLED LEVELS    =         30
          MOLECULAR WEIGHT        =        151.2078

          MOLECULAR DIMENSIONS (Angstroms)

            Atom       Atom       Distance
            H    19    H    13     6.95536
            H    18    H     9     5.97166
            O     1    H    16     4.17749


          SCF CALCULATIONS        =         95
 
          WALL-CLOCK TIME         =          2.359 SECONDS
          COMPUTATION TIME        =          8.939 SECONDS




   ATOM                 CHEMICAL                   X               Y               Z
  NUMBER                 SYMBOL               (ANGSTROMS)     (ANGSTROMS)     (ANGSTROMS)
 
     1       O(HETATM    1  O   HET A   1)   -0.35456760  *   0.01805922  *  -0.28620784  *
     2       C(HETATM    2  C   HET B   2)    3.31254421  *  -0.45163386  *   0.11745961  *
     3       C(HETATM    3  C   HET C   1)   -0.41367531  *   1.22371044  *  -0.00862461  *
     4       C(HETATM    4  C1  HET D   2)    2.17768508  *   1.12658228  *   1.51480711  *
     5       N(HETATM    5  N   HET D   2)    2.51040003  *  -0.17417026  *   1.20908336  *
     6       C(HETATM    6  C2  HET D   2)    2.59384217  *   2.16383895  *   0.72303883  *
     7       C(HETATM    7  C3  HET D   2)    3.26511207  *   1.90292047  *  -0.52847093  *
     8       C(HETATM    8  C4  HET D   2)    3.74351981  *   0.54824998  *  -0.70489784  *
     9       H(HETATM    9  H   HET E   1)   -0.95067243  *   1.48013193  *   0.91899644  *
    10       C(HETATM   10  C   HET F   2)    1.92607451  *  -1.26868711  *   1.98590941  *
    11       H(HETATM   11 1H1  HET K   1)    2.22867656  *   2.00537483  *  -1.48202983  *
    12       H(HETATM   12 2H1  HET K   1)    0.92698466  *   1.00581028  *  -2.35050084  *
    13       H(HETATM   13 3H1  HET K   1)    1.06912388  *   2.79543013  *  -2.66555035  *
    14       H(HETATM   14  H2  HET K   1)   -0.04831535  *   3.28021916  *  -0.48716353  *
    15       H(HETATM   15  H1  HET D   2)    1.59509731  *   1.28432211  *   2.43361993  *
    16       H(HETATM   16  H2  HET D   2)    2.38362996  *   3.19374480  *   1.00020523  *
    17       H(HETATM   17  H3  HET D   2)    3.85730134  *   2.71530263  *  -0.97207249  *
    18       H(HETATM   18  H4  HET D   2)    4.42442943  *   0.34056012  *  -1.52644262  *
    19       H(HETATM   19 1H   HET F   2)    1.94048023  *  -1.04286450  *   3.06901272  *
    20       H(HETATM   20 2H   HET F   2)    2.48014931  *  -2.21396381  *   1.83772526  *
    21       H(HETATM   21 3H   HET F   2)    0.87326498  *  -1.43887841  *   1.68115669  *
    22       C(HETATM   22  C1  HET K   1)    0.93132135  *   2.01018418  *  -1.92076854  *
    23       C(HETATM   23  C2  HET K   1)    0.12197722  *   2.25949977  *  -0.80019746  *
    24       H(HETATM   24  H   HET B   2)    3.59882618  *  -1.50194470  *  -0.02802763  *

                             CARTESIAN COORDINATES

   1    O       -0.354567602     0.018059217    -0.286207843
   2    C        3.312544208    -0.451633858     0.117459614
   3    C       -0.413675312     1.223710438    -0.008624613
   4    C        2.177685077     1.126582285     1.514807110
   5    N        2.510400028    -0.174170263     1.209083364
   6    C        2.593842166     2.163838946     0.723038828
   7    C        3.265112074     1.902920465    -0.528470927
   8    C        3.743519808     0.548249978    -0.704897838
   9    H       -0.950672431     1.480131931     0.918996443
  10    C        1.926074512    -1.268687115     1.985909415
  11    H        2.228676561     2.005374830    -1.482029826
  12    H        0.926984655     1.005810279    -2.350500835
  13    H        1.069123883     2.795430130    -2.665550349
  14    H       -0.048315347     3.280219158    -0.487163531
  15    H        1.595097305     1.284322106     2.433619927
  16    H        2.383629959     3.193744799     1.000205228
  17    H        3.857301337     2.715302625    -0.972072492
  18    H        4.424429432     0.340560122    -1.526442624
  19    H        1.940480233    -1.042864500     3.069012723
  20    H        2.480149307    -2.213963805     1.837725257
  21    H        0.873264980    -1.438878412     1.681156692
  22    C        0.931321352     2.010184177    -1.920768541
  23    C        0.121977224     2.259499775    -0.800197462
  24    H        3.598826182    -1.501944705    -0.028027628


           Empirical Formula: C9 H13 N O  =    24 atoms



      MOLECULAR POINT GROUP   :   C1  


                  EIGENVALUES  
 -37.53695 -29.63123 -29.07598 -26.76470 -26.50802 -24.80920 -23.21965 -22.20286
 -22.08599 -18.37378 -18.21564 -16.78374 -16.62177 -16.40744 -16.08322 -15.11000
 -14.85758 -14.48795 -14.36786 -13.59880 -13.54698 -13.21027 -12.74329 -12.42887
 -12.34830 -12.17323 -10.60708  -9.83500  -9.55312  -7.47491  -0.94062   0.03773
   1.36039   1.56836   2.11381   3.90480   3.93715   4.49407   4.68472   4.80997
   4.91006   5.03627   5.10406   5.26406   5.29900   5.37931   5.56692   5.63200
   5.80335   5.84321   6.01097   6.08953   6.14612   6.22754   6.25547   6.58446
   6.98176


              NET ATOMIC CHARGES AND DIPOLE CONTRIBUTIONS

  ATOM NO.                 TYPE                        CHARGE      No. of ELECS.   s-Pop       p-Pop       
    1          O(HETATM    1  O   HET A   1)          -0.745106        6.7451     1.87912     4.86599
    2          C(HETATM    2  C   HET B   2)           0.048641        3.9514     1.09232     2.85904
    3          C(HETATM    3  C   HET C   1)           0.398232        3.6018     1.11216     2.48961
    4          C(HETATM    4  C1  HET D   2)           0.073005        3.9270     1.09522     2.83177
    5          N(HETATM    5  N   HET D   2)          -0.235405        5.2354     1.51061     3.72480
    6          C(HETATM    6  C2  HET D   2)          -0.291162        4.2912     1.07827     3.21289
    7          C(HETATM    7  C3  HET D   2)          -0.067145        4.0671     1.08191     2.98524
    8          C(HETATM    8  C4  HET D   2)          -0.309702        4.3097     1.07813     3.23157
    9          H(HETATM    9  H   HET E   1)           0.096635        0.9034     0.90336
   10          C(HETATM   10  C   HET F   2)          -0.269162        4.2692     1.06767     3.20149
   11          H(HETATM   11 1H1  HET K   1)           0.129683        0.8703     0.87032
   12          H(HETATM   12 2H1  HET K   1)           0.147431        0.8526     0.85257
   13          H(HETATM   13 3H1  HET K   1)           0.144754        0.8552     0.85525
   14          H(HETATM   14  H2  HET K   1)           0.155998        0.8440     0.84400
   15          H(HETATM   15  H1  HET D   2)           0.189505        0.8105     0.81049
   16          H(HETATM   16  H2  HET D   2)           0.180283        0.8197     0.81972
   17          H(HETATM   17  H3  HET D   2)           0.167913        0.8321     0.83209
   18          H(HETATM   18  H4  HET D   2)           0.180680        0.8193     0.81932
   19          H(HETATM   19 1H   HET F   2)           0.176575        0.8234     0.82342
   20          H(HETATM   20 2H   HET F   2)           0.178132        0.8219     0.82187
   21          H(HETATM   21 3H   HET F   2)           0.177527        0.8225     0.82247
   22          C(HETATM   22  C1  HET K   1)          -0.187815        4.1878     1.08794     3.09988
   23          C(HETATM   23  C2  HET K   1)          -0.529448        4.5294     1.06376     3.46569
   24          H(HETATM   24  H   HET B   2)           0.189949        0.8101     0.81005

          NET CHARGE ON RESIDUES

      Residue         Charge  Anion or
                              Cation?
      HET A   1       -0.745  ANION
      HET B   2       +0.239
      HET C   1       +0.495
      HET D   2       -0.112
      HET F   2       +0.263
      HET K   1       -0.139
 


 DIPOLE           X         Y         Z       TOTAL
 POINT-CHG.     5.860     0.482     3.784     6.992
 HYBRID         0.132    -0.382    -0.103     0.417
 SUM            5.992     0.100     3.680     7.033


          ATOMIC ORBITAL ELECTRON POPULATIONS

                   Atom                  s        px        py        pz   
   O(HETATM    1  O   HET A   1)   1.87912   1.68849   1.34223   1.83527
   C(HETATM    2  C   HET B   2)   1.09232   0.91503   1.07462   0.86939
   C(HETATM    3  C   HET C   1)   1.11216   0.76197   0.82108   0.90655
   C(HETATM    4  C1  HET D   2)   1.09522   0.95909   0.83778   1.03490
   N(HETATM    5  N   HET D   2)   1.51061   1.36683   1.10307   1.25490
   C(HETATM    6  C2  HET D   2)   1.07827   1.10091   1.08031   1.03167
   C(HETATM    7  C3  HET D   2)   1.08191   0.98407   1.03411   0.96706
   C(HETATM    8  C4  HET D   2)   1.07813   1.12949   0.99508   1.10701
   H(HETATM    9  H   HET E   1)   0.90336
   C(HETATM   10  C   HET F   2)   1.06767   1.13618   0.97901   1.08630
   H(HETATM   11 1H1  HET K   1)   0.87032
   H(HETATM   12 2H1  HET K   1)   0.85257
   H(HETATM   13 3H1  HET K   1)   0.85525
   H(HETATM   14  H2  HET K   1)   0.84400
   H(HETATM   15  H1  HET D   2)   0.81049
   H(HETATM   16  H2  HET D   2)   0.81972
   H(HETATM   17  H3  HET D   2)   0.83209
   H(HETATM   18  H4  HET D   2)   0.81932
   H(HETATM   19 1H   HET F   2)   0.82342
   H(HETATM   20 2H   HET F   2)   0.82187
   H(HETATM   21 3H   HET F   2)   0.82247
   C(HETATM   22  C1  HET K   1)   1.08794   0.92159   1.14020   1.03808
   C(HETATM   23  C2  HET K   1)   1.06376   1.24681   1.09202   1.12685
   H(HETATM   24  H   HET B   2)   0.81005
 *******************************************************************************
 ** Site#: 9602  E-mail support:    MrMOPAC@ATT.net    Version 18.053W 64BITS **
 *******************************************************************************
 ** Cite this program as: MOPAC2016, Version: 18.053W, James J. P. Stewart,   **
 ** Stewart Computational Chemistry, web: HTTP://OpenMOPAC.net. Days left: 174**
 *******************************************************************************
 **                                                                           **
 **                                MOPAC2016                                  **
 **                                                                           **
 *******************************************************************************

                              PM7 CALCULATION RESULTS


 *******************************************************************************
 *  CALCULATION DONE:                                Thu Feb 22 16:19:01 2018  *
 *  EPS= 78.40 - USE ANDREAS KLAMT'S COSMO IMPLICIT SOLVATION MODEL
 *  IRC=N      - INTRINSIC REACTION COORDINATE -1 DEFINED
 *  OLDGEO     - PREVIOUS GEOMETRY TO BE USED
 *  T=         - A TIME OF 172800.0 SECONDS REQUESTED
 *  DUMP=N     - RESTART FILE WRITTEN EVERY  7200.000 SECONDS
 *  CYCLES=    - DO A MAXIMUM OF   100 STEPS
 *  HTML       - WRITE HTML SCRIPT TO GENERATE ANIMATION USING JSMOL
 *             - TO DISPLAY IN PDB FORMAT, ADD "PDBOUT"
 *  X-PRIOR    - GEOMETRY CHANGES TAKE PRIORITY IN DRC
 *******************************************************************************
oldgeo irc=-1* x-priority=0.1 html eps=78.4 cycles=100
 Map out the IRC for hydride migration from prop-2-enal anion to Methylpyridinium cation

   ATOM                 CHEMICAL                   X               Y               Z
  NUMBER                 SYMBOL               (ANGSTROMS)     (ANGSTROMS)     (ANGSTROMS)
 
     1       O(HETATM    1  O   HET A   1)   -0.35456760  *   0.01805922  *  -0.28620784  *
     2       C(HETATM    2  C   HET B   2)    3.31254421  *  -0.45163386  *   0.11745961  *
     3       C(HETATM    3  C   HET C   1)   -0.41367531  *   1.22371044  *  -0.00862461  *
     4       C(HETATM    4  C1  HET D   2)    2.17768508  *   1.12658228  *   1.51480711  *
     5       N(HETATM    5  N   HET D   2)    2.51040003  *  -0.17417026  *   1.20908336  *
     6       C(HETATM    6  C2  HET D   2)    2.59384217  *   2.16383895  *   0.72303883  *
     7       C(HETATM    7  C3  HET D   2)    3.26511207  *   1.90292047  *  -0.52847093  *
     8       C(HETATM    8  C4  HET D   2)    3.74351981  *   0.54824998  *  -0.70489784  *
     9       H(HETATM    9  H   HET E   1)   -0.95067243  *   1.48013193  *   0.91899644  *
    10       C(HETATM   10  C   HET F   2)    1.92607451  *  -1.26868711  *   1.98590941  *
    11       H(HETATM   11 1H1  HET K   1)    2.22867656  *   2.00537483  *  -1.48202983  *
    12       H(HETATM   12 2H1  HET K   1)    0.92698466  *   1.00581028  *  -2.35050084  *
    13       H(HETATM   13 3H1  HET K   1)    1.06912388  *   2.79543013  *  -2.66555035  *
    14       H(HETATM   14  H2  HET K   1)   -0.04831535  *   3.28021916  *  -0.48716353  *
    15       H(HETATM   15  H1  HET D   2)    1.59509731  *   1.28432211  *   2.43361993  *
    16       H(HETATM   16  H2  HET D   2)    2.38362996  *   3.19374480  *   1.00020523  *
    17       H(HETATM   17  H3  HET D   2)    3.85730134  *   2.71530263  *  -0.97207249  *
    18       H(HETATM   18  H4  HET D   2)    4.42442943  *   0.34056012  *  -1.52644262  *
    19       H(HETATM   19 1H   HET F   2)    1.94048023  *  -1.04286450  *   3.06901272  *
    20       H(HETATM   20 2H   HET F   2)    2.48014931  *  -2.21396381  *   1.83772526  *
    21       H(HETATM   21 3H   HET F   2)    0.87326498  *  -1.43887841  *   1.68115669  *
    22       C(HETATM   22  C1  HET K   1)    0.93132135  *   2.01018418  *  -1.92076854  *
    23       C(HETATM   23  C2  HET K   1)    0.12197722  *   2.25949977  *  -0.80019746  *
    24       H(HETATM   24  H   HET B   2)    3.59882618  *  -1.50194470  *  -0.02802763  *
 

 General Reference for PM7:
 "Optimization of Parameters for Semiempirical Methods VI: More Modifications to the 
 NDDO Approximations and Re-optimization of Parameters", J. J. P. Stewart, J. Mol. Mod., 1:32, 19 (2013)
 http://www.springerlink.com/openurl.asp?genre=article&id=doi:10.1007/s00894-012-1667-x

           Empirical Formula: C9 H13 N O  =    24 atoms



      MOLECULAR POINT GROUP   :   C1  


      RHF CALCULATION, NO. OF DOUBLY OCCUPIED LEVELS = 30



          HEAT OF FORMATION =      32.417310 KCALS/MOLE


          GRADIENT NORM =   0.89073


          TIME FOR SCF CALCULATION =    0.03

          TIME FOR DERIVATIVES     =    0.02

          MOLECULAR WEIGHT =  151.21


          ESTIMATED TIME TO COMPLETE CALCULATION =        6.75 SECONDS

    FOR POINT-GROUP C1   THERE ARE   1 UNIQUE SYMMETRY FUNCTIONS.

 STEP:   1 TIME =     0.05 SECS, INTEGRAL =      0.05 TIME LEFT: 172799.91
 STEP:   2 TIME =     0.05 SECS, INTEGRAL =      0.09 TIME LEFT: 172799.86
 STEP:   3 TIME =     0.08 SECS, INTEGRAL =      0.17 TIME LEFT: 172799.78
 STEP:   4 TIME =     0.04 SECS, INTEGRAL =      0.21 TIME LEFT: 172799.74
 STEP:   5 TIME =     0.05 SECS, INTEGRAL =      0.26 TIME LEFT: 172799.69
 STEP:   6 TIME =     0.05 SECS, INTEGRAL =      0.31 TIME LEFT: 172799.64
 STEP:   7 TIME =     0.05 SECS, INTEGRAL =      0.36 TIME LEFT: 172799.60
 STEP:   8 TIME =     0.05 SECS, INTEGRAL =      0.41 TIME LEFT: 172799.55
 STEP:   9 TIME =     0.04 SECS, INTEGRAL =      0.45 TIME LEFT: 172799.50
 STEP:  10 TIME =     0.05 SECS, INTEGRAL =      0.50 TIME LEFT: 172799.46
 STEP:  11 TIME =     0.05 SECS, INTEGRAL =      0.54 TIME LEFT: 172799.41
 STEP:  12 TIME =     0.05 SECS, INTEGRAL =      0.59 TIME LEFT: 172799.36
 STEP:  13 TIME =     0.08 SECS, INTEGRAL =      0.67 TIME LEFT: 172799.29
 STEP:  14 TIME =     0.05 SECS, INTEGRAL =      0.71 TIME LEFT: 172799.24
 STEP:  15 TIME =     0.06 SECS, INTEGRAL =      0.78 TIME LEFT: 172799.18
 STEP:  16 TIME =     0.05 SECS, INTEGRAL =      0.82 TIME LEFT: 172799.13
 STEP:  17 TIME =     0.05 SECS, INTEGRAL =      0.87 TIME LEFT: 172799.08
 STEP:  18 TIME =     0.05 SECS, INTEGRAL =      0.92 TIME LEFT: 172799.04
 STEP:  19 TIME =     0.05 SECS, INTEGRAL =      0.96 TIME LEFT: 172798.99
 STEP:  20 TIME =     0.05 SECS, INTEGRAL =      1.01 TIME LEFT: 172798.94
 STEP:  21 TIME =     0.05 SECS, INTEGRAL =      1.06 TIME LEFT: 172798.89
 STEP:  22 TIME =     0.05 SECS, INTEGRAL =      1.11 TIME LEFT: 172798.85
 STEP:  23 TIME =     0.05 SECS, INTEGRAL =      1.15 TIME LEFT: 172798.80
 STEP:  24 TIME =     0.06 SECS, INTEGRAL =      1.21 TIME LEFT: 172798.74
 STEP:  25 TIME =     0.05 SECS, INTEGRAL =      1.26 TIME LEFT: 172798.69
 STEP:  26 TIME =     0.05 SECS, INTEGRAL =      1.31 TIME LEFT: 172798.64
 STEP:  27 TIME =     0.05 SECS, INTEGRAL =      1.36 TIME LEFT: 172798.60
 STEP:  28 TIME =     0.05 SECS, INTEGRAL =      1.40 TIME LEFT: 172798.55
 STEP:  29 TIME =     0.05 SECS, INTEGRAL =      1.45 TIME LEFT: 172798.50
 STEP:  30 TIME =     0.05 SECS, INTEGRAL =      1.50 TIME LEFT: 172798.46
 STEP:  31 TIME =     0.05 SECS, INTEGRAL =      1.54 TIME LEFT: 172798.41
 STEP:  32 TIME =     0.05 SECS, INTEGRAL =      1.59 TIME LEFT: 172798.36
 STEP:  33 TIME =     0.05 SECS, INTEGRAL =      1.64 TIME LEFT: 172798.32
 STEP:  34 TIME =     0.05 SECS, INTEGRAL =      1.68 TIME LEFT: 172798.27
 STEP:  35 TIME =     0.05 SECS, INTEGRAL =      1.73 TIME LEFT: 172798.22
 STEP:  36 TIME =     0.05 SECS, INTEGRAL =      1.78 TIME LEFT: 172798.18
 STEP:  37 TIME =     0.05 SECS, INTEGRAL =      1.82 TIME LEFT: 172798.13
 STEP:  38 TIME =     0.05 SECS, INTEGRAL =      1.87 TIME LEFT: 172798.08
 STEP:  39 TIME =     0.05 SECS, INTEGRAL =      1.92 TIME LEFT: 172798.04
 STEP:  40 TIME =     0.05 SECS, INTEGRAL =      1.96 TIME LEFT: 172797.99
 STEP:  41 TIME =     0.06 SECS, INTEGRAL =      2.03 TIME LEFT: 172797.93
 STEP:  42 TIME =     0.03 SECS, INTEGRAL =      2.06 TIME LEFT: 172797.89
 STEP:  43 TIME =     0.03 SECS, INTEGRAL =      2.09 TIME LEFT: 172797.86
 STEP:  44 TIME =     0.05 SECS, INTEGRAL =      2.14 TIME LEFT: 172797.82
 STEP:  45 TIME =     0.05 SECS, INTEGRAL =      2.18 TIME LEFT: 172797.77
 STEP:  46 TIME =     0.05 SECS, INTEGRAL =      2.23 TIME LEFT: 172797.72
 STEP:  47 TIME =     0.03 SECS, INTEGRAL =      2.26 TIME LEFT: 172797.69
 STEP:  48 TIME =     0.05 SECS, INTEGRAL =      2.31 TIME LEFT: 172797.64
 STEP:  49 TIME =     0.05 SECS, INTEGRAL =      2.36 TIME LEFT: 172797.60
 STEP:  50 TIME =     0.05 SECS, INTEGRAL =      2.40 TIME LEFT: 172797.55
 STEP:  51 TIME =     0.05 SECS, INTEGRAL =      2.45 TIME LEFT: 172797.50
 STEP:  52 TIME =     0.05 SECS, INTEGRAL =      2.50 TIME LEFT: 172797.46
 STEP:  53 TIME =     0.04 SECS, INTEGRAL =      2.54 TIME LEFT: 172797.41
 STEP:  54 TIME =     0.04 SECS, INTEGRAL =      2.57 TIME LEFT: 172797.38
 STEP:  55 TIME =     0.04 SECS, INTEGRAL =      2.62 TIME LEFT: 172797.34
 STEP:  56 TIME =     0.05 SECS, INTEGRAL =      2.66 TIME LEFT: 172797.29
 STEP:  57 TIME =     0.05 SECS, INTEGRAL =      2.71 TIME LEFT: 172797.24
 STEP:  58 TIME =     0.05 SECS, INTEGRAL =      2.76 TIME LEFT: 172797.19
 STEP:  59 TIME =     0.05 SECS, INTEGRAL =      2.81 TIME LEFT: 172797.14
 STEP:  60 TIME =     0.04 SECS, INTEGRAL =      2.85 TIME LEFT: 172797.10
 STEP:  61 TIME =     0.05 SECS, INTEGRAL =      2.90 TIME LEFT: 172797.05
 STEP:  62 TIME =     0.05 SECS, INTEGRAL =      2.95 TIME LEFT: 172797.01
 STEP:  63 TIME =     0.03 SECS, INTEGRAL =      2.98 TIME LEFT: 172796.98
 STEP:  64 TIME =     0.05 SECS, INTEGRAL =      3.02 TIME LEFT: 172796.93
 STEP:  65 TIME =     0.03 SECS, INTEGRAL =      3.05 TIME LEFT: 172796.90
 STEP:  66 TIME =     0.03 SECS, INTEGRAL =      3.09 TIME LEFT: 172796.87
 STEP:  67 TIME =     0.05 SECS, INTEGRAL =      3.13 TIME LEFT: 172796.82
 STEP:  68 TIME =     0.05 SECS, INTEGRAL =      3.18 TIME LEFT: 172796.77
 STEP:  69 TIME =     0.05 SECS, INTEGRAL =      3.23 TIME LEFT: 172796.73
 STEP:  70 TIME =     0.05 SECS, INTEGRAL =      3.27 TIME LEFT: 172796.68
 STEP:  71 TIME =     0.03 SECS, INTEGRAL =      3.30 TIME LEFT: 172796.65
 STEP:  72 TIME =     0.05 SECS, INTEGRAL =      3.35 TIME LEFT: 172796.60
           INITIAL VELOCITY IN DRC (Angstroms/Femtosecond)
        -0.00353         0.00576        -0.00009
         0.00324         0.00043        -0.00877
        -0.00076        -0.01722         0.01282
        -0.00202         0.01043        -0.00490
         0.00152        -0.00295         0.00448
        -0.00366         0.00277         0.01856
        -0.03030         0.00134        -0.03409
         0.00978        -0.01393         0.00670
        -0.00432         0.00498         0.00359
        -0.00107        -0.00062        -0.00035
         0.47567         0.06548         0.17386
         0.05614         0.01124         0.01428
         0.07670         0.01708         0.01659
        -0.00929         0.00665         0.00349
         0.00431        -0.00365        -0.00221
         0.00327        -0.00333         0.00305
         0.06672         0.01577         0.04417
        -0.00177         0.00215         0.00330
         0.00038        -0.00096        -0.00181
        -0.00071         0.00135        -0.00171
         0.00152        -0.00071         0.00217
        -0.04620         0.00152         0.01041
         0.01752         0.00087        -0.02745
         0.00338         0.00513         0.00292

 GEOMETRY PRIORITY, STEP = 0.1000 ANGSTROMS



     POINT   POTENTIAL  +  ENERGY LOST   =   TOTAL      ERROR    REF%   MOVEMENT
       1      32.41728      0.00000         32.41728   0.00000     1   %  0.0000
       2      28.47167      0.00000         28.47167  -3.94561     2   %  0.2407
       7      24.57304      2.01880         26.59185  -1.87982     3   %  0.3861
      11      22.58841      3.96268         26.55109  -1.92058     4   %  0.4673
      16      20.31893      6.21965         26.53858  -1.93309     5   %  0.5739
      20      18.73342      7.86295         26.59636  -1.87530     6   %  0.6611
      25      16.76037      9.73514         26.49551  -1.97616     7   %  0.7711
      28      15.34890     11.15514         26.50405  -1.96762     8   %  0.8632
      32      14.08736     12.44262         26.52998  -1.94169     9   %  0.9547
      36      13.04917     13.48277         26.53193  -1.93973    10   %  1.0352
      40      12.03780     14.50390         26.54170  -1.92997    11   %  1.1211
      45      10.98468     15.62071         26.60538  -1.86628    12   %  1.2240
      49      10.10068     16.51791         26.61859  -1.85308    13   %  1.3141
      52       9.38166     17.21804         26.59970  -1.87197    14   %  1.3894
      57       8.50522     18.10187         26.60709  -1.86458    15   %  1.4907
      61       7.79547     18.82043         26.61590  -1.85577    16   %  1.5786
      65       7.26524     19.37435         26.63959  -1.83207    17   %  1.6494
      69       6.57828     20.04973         26.62801  -1.84366    18   %  1.7392
      73       6.14985     20.47866         26.62851  -1.84316    19   %  1.7982
      77       5.53263     21.09667         26.62930  -1.84237    20   %  1.8865
      82       5.04160     21.55394         26.59555  -1.87612    21   %  1.9545
      85       4.61976     21.98455         26.60431  -1.86736    22   %  2.0213
      89       4.23043     22.37822         26.60865  -1.86302    23   %  2.0849
      93       3.87624     22.73480         26.61104  -1.86063    24   %  2.1456
      97       3.59040     23.05569         26.64609  -1.82557    25   %  2.2020
     100       3.34777     23.30716         26.65494  -1.81673    26   %  2.2480
     104       3.01367     23.59473         26.60839  -1.86327    27   %  2.3027
     108       2.77653     23.83341         26.60994  -1.86173    28   %  2.3491
     111       2.62402     24.02815         26.65217  -1.81950    29   %  2.3853
     115       2.47214     24.26516         26.73730  -1.73437    30   %  2.4251
     118       2.41351     24.48392         26.89743  -1.57424    31   %  2.4599
     122       2.28790     24.68299         26.97089  -1.50078    32   %  2.4899
     126       2.17031     24.93124         27.10155  -1.37012    33   %  2.5249
     130       2.07376     25.16091         27.23467  -1.23700    34   %  2.5559
     134       1.99967     25.38905         27.38871  -1.08295    35   %  2.5851
     138       1.90155     25.64080         27.54235  -0.92932    36   %  2.6162
     142       1.81786     25.89187         27.70973  -0.76194    37   %  2.6454
     147       1.74277     26.14948         27.89225  -0.57942    38   %  2.6741
     151       1.67252     26.41161         28.08413  -0.38753    39   %  2.7024
     156       1.63077     26.65929         28.29006  -0.18161    40   %  2.7294
     161       1.56828     26.94491         28.51319   0.04152    41   %  2.7626
     165       1.59888     27.17106         28.76995   0.29828    42   %  2.7913
     170       1.54238     27.50944         29.05182   0.58016    43   %  2.8359
     176       1.51130     27.79940         29.31070   0.83903    44   %  2.8727
     181       1.46697     28.09098         29.55795   1.08629    45   %  2.9093
     186       1.43937     28.38458         29.82395   1.35228    46   %  2.9450
     191       1.40396     28.67843         30.08238   1.61072    47   %  2.9790
     196       1.36646     28.92267         30.28913   1.81747    48   %  3.0070
     202       1.33047     29.25951         30.58998   2.11831    49   %  3.0443
     207       1.25311     29.53954         30.79266   2.32099    50   %  3.0749
     213       1.22767     29.88254         31.11021   2.63855    51   %  3.1106
     218       1.19588     30.19112         31.38700   2.91533    52   %  3.1420
     224       1.19027     30.49127         31.68153   3.20987    53   %  3.1714
     229       1.16738     30.82226         31.98964   3.51797    54   %  3.2035
     235       1.13226     31.10372         32.23598   3.76431    55   %  3.2309
     241       1.11883     31.44044         32.55927   4.08760    56   %  3.2624
     247       1.09646     31.77403         32.87049   4.39883    57   %  3.2931
     252       1.11104     32.05188         33.16292   4.69125    58   %  3.3184
     258       1.08513     32.38739         33.47252   5.00085    59   %  3.3484
     264       1.03661     32.73502         33.77162   5.29996    60   %  3.3790
     269       0.93647     33.00357         33.94004   5.46838    61   %  3.4020
     275       0.92291     33.33943         34.26234   5.79067    62   %  3.4306
     281       0.90793     33.67828         34.58620   6.11454    63   %  3.4586
     287       0.89142     34.01858         34.91000   6.43834    64   %  3.4863
     292       0.99575     34.30250         35.29825   6.82659    65   %  3.5092
     298       1.01667     34.64097         35.65764   7.18597    66   %  3.5359
     304       1.00689     34.98468         35.99156   7.51990    67   %  3.5623
     309       0.95903     35.27060         36.22963   7.75796    68   %  3.5837
     315       0.94768     35.61266         36.56034   8.08867    69   %  3.6095
     321       0.93694     35.95798         36.89492   8.42325    70   %  3.6350
     327       0.92614     36.30018         37.22632   8.75465    71   %  3.6602


           POTENTIAL ENERGY HAS STOPPED DROPPING

           INITIAL VELOCITY IN DRC (Angstroms/Femtosecond)
         0.00353        -0.00576         0.00009
        -0.00324        -0.00043         0.00877
         0.00076         0.01722        -0.01282
         0.00202        -0.01043         0.00490
        -0.00152         0.00295        -0.00448
         0.00366        -0.00277        -0.01856
         0.03030        -0.00134         0.03409
        -0.00978         0.01393        -0.00670
         0.00432        -0.00498        -0.00359
         0.00107         0.00062         0.00035
        -0.47567        -0.06548        -0.17386
        -0.05614        -0.01124        -0.01428
        -0.07670        -0.01708        -0.01659
         0.00929        -0.00665        -0.00349
        -0.00431         0.00365         0.00221
        -0.00327         0.00333        -0.00305
        -0.06672        -0.01577        -0.04417
         0.00177        -0.00215        -0.00330
        -0.00038         0.00096         0.00181
         0.00071        -0.00135         0.00171
        -0.00152         0.00071        -0.00217
         0.04620        -0.00152        -0.01041
        -0.01752        -0.00087         0.02745
        -0.00338        -0.00513        -0.00292

 GEOMETRY PRIORITY, STEP = 0.1000 ANGSTROMS



     POINT   POTENTIAL  +  ENERGY LOST   =   TOTAL      ERROR    REF%   MOVEMENT
       1      32.41731      0.00000         32.41731   0.00000     1   %  0.0000
       2      28.36653      0.00000         28.36653  -4.05078     2   %  0.2457
       7      24.53540      1.97329         26.50868  -1.85784     3   %  0.3884
      12      22.18739      4.31088         26.49827  -1.86825     4   %  0.4831
      16      19.93720      6.52671         26.46391  -1.90262     5   %  0.5867
      20      18.17653      8.28603         26.46256  -1.90397     6   %  0.6814
      23      16.93707      9.53223         26.46931  -1.89722     7   %  0.7552
      28      15.29913     11.13251         26.43164  -1.93489     8   %  0.8574
      32      13.92712     12.48406         26.41118  -1.95535     9   %  0.9508
      36      12.75068     13.66218         26.41286  -1.95366    10   %  1.0378
      39      11.66547     14.75376         26.41923  -1.94729    11   %  1.1230
      44      10.73062     15.69367         26.42429  -1.94224    12   %  1.1997
      49       9.73082     16.75027         26.48109  -1.88544    13   %  1.2894
      53       8.84326     17.64019         26.48345  -1.88308    14   %  1.3680
      56       8.07155     18.42088         26.49244  -1.87409    15   %  1.4391
      60       7.34868     19.14445         26.49313  -1.87340    16   %  1.5070
      63       6.70425     19.78935         26.49361  -1.87292    17   %  1.5693
      67       6.16019     20.32252         26.48272  -1.88381    18   %  1.6225
      71       5.60822     20.89704         26.50526  -1.86127    19   %  1.6825
      74       5.11730     21.38360         26.50090  -1.86563    20   %  1.7397
      78       4.66676     21.82651         26.49327  -1.87326    21   %  1.7983
      81       4.25696     22.23008         26.48704  -1.87949    22   %  1.8564
      84       3.88601     22.59788         26.48389  -1.88264    23   %  1.9138
      88       3.53381     22.92966         26.46347  -1.90306    24   %  1.9704
      91       3.21475     23.24836         26.46310  -1.90342    25   %  2.0302
      94       2.92690     23.53699         26.46389  -1.90264    26   %  2.0911
      97       2.65887     23.80393         26.46280  -1.90372    27   %  2.1557
      99       2.48319     23.98076         26.46395  -1.90258    28   %  2.2034
     103       2.19789     24.26362         26.46151  -1.90501    29   %  2.2882
     106       1.98183     24.50354         26.48537  -1.88115    30   %  2.3668
     109       1.84780     24.66938         26.51718  -1.84935    31   %  2.4176
     112       1.66935     24.94230         26.61165  -1.75487    32   %  2.4925
     116       1.52092     25.17277         26.69369  -1.67283    33   %  2.5538
     119       1.44035     25.36026         26.80061  -1.56592    34   %  2.6024
     123       1.28866     25.63785         26.92651  -1.44002    35   %  2.6733
     126       1.16446     25.87466         27.03912  -1.32740    36   %  2.7328
     130       1.04401     26.11276         27.15677  -1.20975    37   %  2.7923
     133       0.92744     26.35257         27.28001  -1.08651    38   %  2.8514
     137       0.81308     26.59450         27.40758  -0.95894    39   %  2.9096
     141       0.70736     26.83922         27.54658  -0.81995    40   %  2.9675
     144       0.60431     27.08410         27.68841  -0.67812    41   %  3.0249
     148       0.50451     27.32822         27.83273  -0.53380    42   %  3.0819
     152       0.40923     27.57370         27.98293  -0.38359    43   %  3.1381
     156       0.31818     27.81876         28.13694  -0.22959    44   %  3.1938
     159       0.23097     28.06507         28.29604  -0.07049    45   %  3.2483
     163       0.14588     28.31082         28.45670   0.09018    46   %  3.3023
     167       0.06720     28.55569         28.62288   0.25636    47   %  3.3558
     171      -0.01025     28.79955         28.78930   0.42278    48   %  3.4083
     175      -0.07993     29.04359         28.96366   0.59713    49   %  3.4600
     179      -0.15502     29.28664         29.13162   0.76509    50   %  3.5110
     183      -0.22470     29.52835         29.30366   0.93713    51   %  3.5613
     186      -0.29363     29.77033         29.47670   1.11017    52   %  3.6103
     190      -0.36409     30.01082         29.64673   1.28020    53   %  3.6588
     194      -0.37728     30.20596         29.82868   1.46215    54   %  3.6969
     198      -0.45207     30.49627         30.04421   1.67768    55   %  3.7529
     202      -0.51039     30.73847         30.22808   1.86155    56   %  3.7986
     206      -0.57099     30.97923         30.40824   2.04172    57   %  3.8433
     210      -0.62540     31.22028         30.59489   2.22836    58   %  3.8875
     214      -0.68094     31.46221         30.78127   2.41474    59   %  3.9304
     218      -0.75787     31.70289         30.94502   2.57849    60   %  3.9726
     222      -0.80252     31.94582         31.14331   2.77678    61   %  4.0138
     226      -0.84818     32.18660         31.33842   2.97189    62   %  4.0546
     230      -0.90207     32.42745         31.52538   3.15885    63   %  4.0943
     234      -0.95101     32.66963         31.71861   3.35209    64   %  4.1335
     238      -0.98796     32.91056         31.92260   3.55607    65   %  4.1718
     242      -1.02801     33.15058         32.12257   3.75604    66   %  4.2093
     247      -1.07110     33.39342         32.32231   3.95579    67   %  4.2462
     251      -1.09370     33.63700         32.54330   4.17677    68   %  4.2820
     255      -1.13162     33.88140         32.74978   4.38325    69   %  4.3168
     259      -1.10860     34.12480         33.01620   4.64968    70   %  4.3507
     263      -1.14214     34.37039         33.22825   4.86173    71   %  4.3840
     267      -1.17173     34.61587         33.44414   5.07762    72   %  4.4166
     272      -1.19472     34.86040         33.66568   5.29916    73   %  4.4486
     276      -1.21809     35.10650         33.88840   5.52188    74   %  4.4802
     280      -1.24914     35.35356         34.10441   5.73789    75   %  4.5108
     284      -1.27926     35.60138         34.32212   5.95560    76   %  4.5409
     289      -1.30537     35.85237         34.54700   6.18047    77   %  4.5700
     293      -1.33342     36.10016         34.76674   6.40021    78   %  4.5984
     297      -1.34210     36.35075         35.00865   6.64212    79   %  4.6263
     302      -1.36362     36.60033         35.23671   6.87018    80   %  4.6536
     306      -1.38102     36.85146         35.47043   7.10391    81   %  4.6808
     310      -1.40320     37.10360         35.70040   7.33388    82   %  4.7070
     315      -1.42468     37.35908         35.93440   7.56788    83   %  4.7323
     319      -1.45166     37.61342         36.16176   7.79523    84   %  4.7569
     324      -1.47721     37.86913         36.39192   8.02539    85   %  4.7810
     328      -1.48609     38.10047         36.61438   8.24785    86   %  4.8024
     332      -1.49841     38.38101         36.88259   8.51607    87   %  4.8289
     337      -1.51925     38.63794         37.11869   8.75217    88   %  4.8513
     341      -1.53874     38.89386         37.35513   8.98860    89   %  4.8733
     346      -1.55301     39.14912         37.59612   9.22959    90   %  4.8951
     350      -1.56603     39.40546         37.83943   9.47291    91   %  4.9167
     355      -1.58203     39.66561         38.08357   9.71705    92   %  4.9373
     359      -1.59316     39.88813         38.29497   9.92844    93   %  4.9549
     364      -1.61402     40.18506         38.57103  10.20451    94   %  4.9770
     368      -1.63734     40.44481         38.80746  10.44094    95   %  4.9970
     373      -1.64986     40.69844         39.04859  10.68206    96   %  5.0158
     377      -1.66111     40.93233         39.27123  10.90470    97   %  5.0324
     382      -1.68529     41.22162         39.53633  11.16980    98   %  5.0519
     386      -1.69230     41.45735         39.76505  11.39852    99   %  5.0678
     391      -1.69447     41.75317         40.05871  11.69218   100   %  5.0881



 **********************
 *                    *
 * JOB ENDED NORMALLY *
 *                    *
 **********************



 TOTAL JOB TIME:            23.09 SECONDS

 == MOPAC DONE ==
