 *******************************************************************************
 ** Site#: 37037        For non-commercial use only           Version 21.158W **
 *******************************************************************************
 ** Cite this program as: MOPAC2016, Version: 21.158W, James J. P. Stewart,   **
 ** Stewart Computational Chemistry, web: HTTP://OpenMOPAC.net. Days left: 361**
 *******************************************************************************
 **                                                                           **
 **                                MOPAC2016                                  **
 **                                                                           **
 *******************************************************************************

                              PM7 CALCULATION RESULTS

 *******************************************************************************
 *  CALCULATION DONE:                                Fri Jun 11 17:44:39 2021  *
 *  OPT        - OPTIMIZE COORDINATES OF ALL ATOMS
 *
 *
 *
 *                 CHARGE ON SYSTEM = -1
 *
 *
 *
 *  EPS=78.4   - USE ANDREAS KLAMT'S COSMO IMPLICIT SOLVATION MODEL
 *  PRECISE    - TIGHTER CRITERIA TO BE USED
 *  TS         - USE EF ROUTINE FOR TS SEARCH
 *  T=         - A TIME OF 172800.0 SECONDS REQUESTED
 *  DUMP=N     - RESTART FILE WRITTEN EVERY 7200.0 SECONDS REQUESTED
 *******************************************************************************
charge=-1 precise ts opt eps=78.4
 Refine the transition state geometry

  ATOM               CHEMICAL                 BOND LENGTH      BOND ANGLE     TWIST ANGLE 
 NUMBER               SYMBOL                  (ANGSTROMS)      (DEGREES)       (DEGREES) 
   (I)                                           NA:I           NB:NA:I       NC:NB:NA:I       NA    NB    NC 
     1       I(HETATM    1  I   HET A   1)    0.00000000       0.0000000       0.0000000   
     2       C(HETATM    2  C   HET A   1)    2.59333293  *    0.0000000       0.0000000        1     0     0
     3       H(HETATM    3  H   HET A   1)    1.08601790  *   91.7185726  *    0.0000000        2     1     0
     4       H(HETATM    4  H   HET A   1)    1.08609938  *   91.6858647  *  120.0149307  *     2     1     3
     5       H(HETATM    5  H   HET A   1)    1.08595602  *   91.6952992  *  119.9696175  *     2     1     4
     6      XX(HETATM    6  X   HET A   1)    2.59333293  *  179.9648995  *    0.0002635  *     2     1     3
     7       F(HETATM    7  F   HET A   1)   -0.60000000  *  180.0000000  *    0.0000000  *     6     2     3
 

 General Reference for PM7:
 "Optimization of Parameters for Semiempirical Methods VI: More Modifications to the 
 NDDO Approximations and Re-optimization of Parameters", J. J. P. Stewart, J. Mol. Mod., 1:32, 19 (2013)
 https://link.springer.com/article/10.1007/s00894-012-1667-x

           Empirical Formula: C H3 I F  =     6 atoms



      MOLECULAR POINT GROUP   :   C3v 


      RHF CALCULATION, NO. OF DOUBLY OCCUPIED LEVELS = 11


          Transition state refinement using EF

          HESSIAN CALCULATED NUMERICALLY

 CYCLE:     1 TIME:   0.109 TIME LEFT:  2.00D  GRAD.:     1.690 HEAT: -125.8510
 CYCLE:     2 TIME:   0.016 TIME LEFT:  2.00D  GRAD.:     0.142 HEAT: -125.8533
 CYCLE:     3 TIME:   0.000 TIME LEFT:  2.00D  GRAD.:     0.106 HEAT: -125.8524
 CYCLE:     4 TIME:   0.016 TIME LEFT:  2.00D  GRAD.:     0.049 HEAT: -125.8557

     GRADIENT =  0.04923 IS LESS THAN CUTOFF =  0.05000



 -------------------------------------------------------------------------------
 charge=-1 precise ts opt eps=78.4
 Refine the transition state geometry



     GEOMETRY OPTIMISED USING EIGENVECTOR FOLLOWING (TS).     
     SCF FIELD WAS ACHIEVED                                   


                              PM7 CALCULATION
                                                       MOPAC2016 (Version: 21.158W)
                                                       Fri Jun 11 17:44:39 2021
                                                       No. of days remaining = 361




          FINAL HEAT OF FORMATION =       -125.85566 KCAL/MOL =    -526.58007 KJ/MOL
          VAN DER WAALS AREA      =        112.78 SQUARE ANGSTROMS


          TOTAL ENERGY            =       -856.00452 EV
          ELECTRONIC ENERGY       =       -569.25166 EV  POINT GROUP:     C3v 
          CORE-CORE REPULSION     =       -286.75286 EV

          DIELECTRIC ENERGY       =         -2.89314 EV
          COSMO AREA              =        112.78 SQUARE ANGSTROMS
          COSMO VOLUME            =         95.40 CUBIC ANGSTROMS

          GRADIENT NORM           =          0.04923 = 0.02010 PER ATOM
          IONIZATION POTENTIAL    =          9.758107 EV
          HOMO LUMO ENERGIES (EV) =         -9.758 -0.689
          NO. OF FILLED LEVELS    =         11
          MOLECULAR WEIGHT        =        160.9376

          MOLECULAR DIMENSIONS (Angstroms)

            Atom       Atom       Distance
            F     6    I     1     4.59150
            H     3    H     4     1.88000
            H     5    H     4     1.62740


          SCF CALCULATIONS        =         21
 
          WALL-CLOCK TIME         =          0.203 SECONDS
          COMPUTATION TIME        =          0.156 SECONDS




  ATOM               CHEMICAL                 BOND LENGTH      BOND ANGLE     TWIST ANGLE 
 NUMBER               SYMBOL                  (ANGSTROMS)      (DEGREES)       (DEGREES) 
   (I)                                           NA:I           NB:NA:I       NC:NB:NA:I       NA    NB    NC 
     1       I(HETATM    1  I   HET A   1)    0.00000000       0.0000000       0.0000000   
     2       C(HETATM    2  C   HET A   1)    2.59206198  *    0.0000000       0.0000000        1     0     0
     3       H(HETATM    3  H   HET A   1)    1.08576163  *   91.8221316  *    0.0000000        2     1     0
     4       H(HETATM    4  H   HET A   1)    1.08580526  *   91.9225599  *  120.0387701  *     2     1     3
     5       H(HETATM    5  H   HET A   1)    1.08573377  *   91.9330565  *  119.9747323  *     2     1     4
     6      XX(HETATM    6  X   HET A   1)    2.50232928  *  179.7811180  *   -4.3832437  *     2     1     3
     7       F(HETATM    7  F   HET A   1)   -0.50289323  *  179.8165112  *   -2.9366162  *     6     2     3

                             CARTESIAN COORDINATES

   1    I        0.000000000     0.000000000     0.000000000
   2    C        2.592061982     0.000000000     0.000000000
   3    H        2.626585766     1.085212613     0.000000000
   4    H        2.628489341    -0.543232832     0.939438239
   5    H        2.628685737    -0.542336477    -0.939865770
   6    F        4.591492171     0.006007540    -0.000501281


           Empirical Formula: C H3 I F  =     6 atoms



      MOLECULAR POINT GROUP   :   C3v 


                  EIGENVALUES  
 -34.10243 -25.49712 -20.94683 -15.16257 -15.15940 -12.45814 -12.40572 -12.40390
  -9.85606  -9.76261  -9.75811  -0.68852   4.98446   5.24659   5.25083 129.79578
 129.79758 129.83566 130.11851 130.11855


              NET ATOMIC CHARGES AND DIPOLE CONTRIBUTIONS

  ATOM NO.                 TYPE                        CHARGE      No. of ELECS.   s-Pop       p-Pop       d-Pop       
    1          I(HETATM    1  I   HET A   1)          -0.749644        7.7496     1.98283     5.76363     0.00318
    2          C(HETATM    2  C   HET A   1)           0.118312        3.8817     1.20958     2.67211
    3          H(HETATM    3  H   HET A   1)           0.162399        0.8376     0.83760
    4          H(HETATM    4  H   HET A   1)           0.162945        0.8371     0.83705
    5          H(HETATM    5  H   HET A   1)           0.162236        0.8378     0.83776
    6          F(HETATM    7  F   HET A   1)          -0.856248        7.8562     1.99794     5.85831

          NET CHARGE ON RESIDUES

      Residue         Charge  Anion or
                              Cation?
      HET A   1       -1.000  ANION
 


 DIPOLE           X         Y         Z       TOTAL
 POINT-CHG.    -7.486    -0.023     0.005     7.486
 HYBRID         0.048     0.000    -0.001     0.048
 SUM           -7.439    -0.022     0.003     7.439


          ATOMIC ORBITAL ELECTRON POPULATIONS

                   Atom                  s        px        py        pz      x^2-y^2     xz        z^2       yz        xy
   I(HETATM    1  I   HET A   1)   1.98283   1.76370   1.99997   1.99997   0.00163   0.00050   0.00055   0.00000   0.00050
   C(HETATM    2  C   HET A   1)   1.20958   0.39619   1.13779   1.13813
   H(HETATM    3  H   HET A   1)   0.83760
   H(HETATM    4  H   HET A   1)   0.83705
   H(HETATM    5  H   HET A   1)   0.83776
   F(HETATM    7  F   HET A   1)   1.99794   1.85831   2.00000   2.00000
 *******************************************************************************
 ** Site#: 37037        For non-commercial use only           Version 21.158W **
 *******************************************************************************
 ** Cite this program as: MOPAC2016, Version: 21.158W, James J. P. Stewart,   **
 ** Stewart Computational Chemistry, web: HTTP://OpenMOPAC.net. Days left: 361**
 *******************************************************************************
 **                                                                           **
 **                                MOPAC2016                                  **
 **                                                                           **
 *******************************************************************************

                              PM7 CALCULATION RESULTS

 *******************************************************************************
 *  CALCULATION DONE:                                Fri Jun 11 17:44:39 2021  *
 *
 *
 *
 *                 CHARGE ON SYSTEM = -1
 *
 *
 *
 *  EPS=78.4   - USE ANDREAS KLAMT'S COSMO IMPLICIT SOLVATION MODEL
 *  IRC=N      - INTRINSIC REACTION COORDINATE -1 DEFINED
 *  OLDGEO     - PREVIOUS GEOMETRY TO BE USED
 *  T=         - A TIME OF 172800.0 SECONDS REQUESTED
 *  DUMP=N     - RESTART FILE WRITTEN EVERY 7200.0 SECONDS REQUESTED
 *  HTML       - WRITE HTML SCRIPT TO GENERATE ANIMATION USING JSMOL
 *             - TO DISPLAY IN PDB FORMAT, ADD "PDBOUT"
 *  X-PRIOR    - GEOMETRY CHANGES TAKE PRIORITY IN DRC
 *******************************************************************************
oldgeo eps=78.4 IRC=-1* charge=-1 x-priority=0.025 html
 Intrinsic reaction coordinate for I - CH3 - F  reaction

  ATOM               CHEMICAL                 BOND LENGTH      BOND ANGLE     TWIST ANGLE 
 NUMBER               SYMBOL                  (ANGSTROMS)      (DEGREES)       (DEGREES) 
   (I)                                           NA:I           NB:NA:I       NC:NB:NA:I       NA    NB    NC 
     1       I(HETATM    1  I   HET A   1)    0.00000000       0.0000000       0.0000000   
     2       C(HETATM    2  C   HET A   1)    2.59206198  *    0.0000000       0.0000000        1     0     0
     3       H(HETATM    3  H   HET A   1)    1.08576163  *   91.8221316  *    0.0000000        2     1     0
     4       H(HETATM    4  H   HET A   1)    1.08580526  *   91.9225599  *  120.0387701  *     2     1     3
     5       H(HETATM    5  H   HET A   1)    1.08573377  *   91.9330565  *  119.9747323  *     2     1     4
     6      XX(HETATM    6  X   HET A   1)    2.50232928  *  179.7811180  *   -4.3832437  *     2     1     3
     7       F(HETATM    7  F   HET A   1)   -0.50289323  *  179.8165112  *   -2.9366162  *     6     2     3
 

 General Reference for PM7:
 "Optimization of Parameters for Semiempirical Methods VI: More Modifications to the 
 NDDO Approximations and Re-optimization of Parameters", J. J. P. Stewart, J. Mol. Mod., 1:32, 19 (2013)
 https://link.springer.com/article/10.1007/s00894-012-1667-x

           Empirical Formula: C H3 I F  =     6 atoms



      MOLECULAR POINT GROUP   :   C3v 


      RHF CALCULATION, NO. OF DOUBLY OCCUPIED LEVELS = 11



          HEAT OF FORMATION =    -125.855657 KCALS/MOLE


          GRADIENT NORM =   0.10573


          TIME FOR SCF CALCULATION =    0.02

          TIME FOR DERIVATIVES     =    0.00

          MOLECULAR WEIGHT =  160.94


          ESTIMATED TIME TO COMPLETE CALCULATION =        0.56 SECONDS

    FOR POINT-GROUP C3v  THERE ARE   6 UNIQUE SYMMETRY FUNCTIONS.

 STEP:   1 TIME =     0.02 SECS, INTEGRAL =      0.02 TIME LEFT: 172799.97
 STEP:   2 TIME =     0.02 SECS, INTEGRAL =      0.03 TIME LEFT: 172799.95
 STEP:   3 TIME =     0.02 SECS, INTEGRAL =      0.05 TIME LEFT: 172799.94
 STEP:   4 TIME =     0.00 SECS, INTEGRAL =      0.05 TIME LEFT: 172799.94
 STEP:   5 TIME =     0.00 SECS, INTEGRAL =      0.05 TIME LEFT: 172799.94
 STEP:   6 TIME =     0.02 SECS, INTEGRAL =      0.06 TIME LEFT: 172799.92
 STEP:   7 TIME =     0.02 SECS, INTEGRAL =      0.08 TIME LEFT: 172799.91
 STEP:   8 TIME =     0.02 SECS, INTEGRAL =      0.09 TIME LEFT: 172799.89
 STEP:   9 TIME =     0.02 SECS, INTEGRAL =      0.11 TIME LEFT: 172799.88
 STEP:  10                       INTEGRAL =      0.11 TIME LEFT: 172799.88
 STEP:  11                       INTEGRAL =      0.11 TIME LEFT: 172799.88
 STEP:  12                       INTEGRAL =      0.11 TIME LEFT: 172799.88
 STEP:  13                       INTEGRAL =      0.11 TIME LEFT: 172799.88
 STEP:  14                       INTEGRAL =      0.11 TIME LEFT: 172799.88
 STEP:  15                       INTEGRAL =      0.11 TIME LEFT: 172799.88
 STEP:  16 TIME =     0.02 SECS, INTEGRAL =      0.12 TIME LEFT: 172799.86
 STEP:  17 TIME =     0.02 SECS, INTEGRAL =      0.14 TIME LEFT: 172799.84
 STEP:  18 TIME =     0.02 SECS, INTEGRAL =      0.16 TIME LEFT: 172799.83
           INITIAL VELOCITY IN DRC (Angstroms/Femtosecond)
        -0.02749         0.00002        -0.00000
         0.59622         0.00052        -0.00005
         0.05300         0.02405         0.00001
         0.05294        -0.01211         0.02088
         0.05294        -0.01210        -0.02088
        -0.20172        -0.00044         0.00004

 GEOMETRY PRIORITY, STEP = 0.0250 ANGSTROMS



     POINT   POTENTIAL  +  ENERGY LOST   =   TOTAL      ERROR    REF%   MOVEMENT
       1    -125.85566      0.00000       -125.85566   0.00000     1   %  0.0000
      17    -125.94265      0.03826       -125.90439  -0.00248     2   %  0.0250
      27    -126.16654      0.22323       -125.94331  -0.04141     3   %  0.0492
      48    -126.60268      0.52529       -126.07739  -0.17548     4   %  0.0735
      64    -127.05232      0.95772       -126.09460  -0.19270     5   %  0.0999
      75    -127.56582      1.44825       -126.11757  -0.21567     6   %  0.1249
      87    -128.14035      2.00690       -126.13345  -0.23155     7   %  0.1499
     104    -128.76559      2.60378       -126.16181  -0.25991     8   %  0.1742
     123    -129.44885      3.27420       -126.17464  -0.27274     9   %  0.1997
     140    -130.10969      3.95734       -126.15236  -0.25045    10   %  0.2245
     159    -130.83467      4.66028       -126.17438  -0.27248    11   %  0.2491
     172    -131.59537      5.39405       -126.20132  -0.29942    12   %  0.2743
     185    -132.36807      6.14193       -126.22615  -0.32424    13   %  0.2998
     202    -133.13367      6.87406       -126.25961  -0.35771    14   %  0.3248
     217    -133.88165      7.59981       -126.28184  -0.37994    15   %  0.3498
     232    -134.63240      8.31737       -126.31504  -0.41314    16   %  0.3747
     249    -135.33063      8.99102       -126.33960  -0.43770    17   %  0.3985
     266    -136.08152      9.70936       -126.37216  -0.47025    18   %  0.4245
     290    -136.94683     10.32356       -126.62327  -0.72136    19   %  0.4472
     310    -137.70840     11.03617       -126.67223  -0.77032    20   %  0.4743
     321    -138.36142     11.66563       -126.69579  -0.79389    21   %  0.4991
     332    -138.98967     12.27159       -126.71808  -0.81617    22   %  0.5240
     350    -139.32205     12.85129       -126.47076  -0.56886    23   %  0.5488
     373    -140.15355     13.40266       -126.75089  -0.84899    24   %  0.5736
     399    -140.56942     13.91003       -126.65939  -0.75748    25   %  0.5976
     415    -141.10764     14.42361       -126.68403  -0.78212    26   %  0.6232
     429    -141.58829     14.89165       -126.69664  -0.79474    27   %  0.6480
     447    -141.96867     15.33258       -126.63609  -0.73418    28   %  0.6728
     463    -142.40106     15.74357       -126.65749  -0.75558    29   %  0.6976
     477    -142.81151     16.12459       -126.68692  -0.78502    30   %  0.7224
     493    -143.19287     16.47505       -126.71782  -0.81592    31   %  0.7472
     507    -143.54246     16.79629       -126.74617  -0.84427    32   %  0.7719
     523    -143.83249     17.08392       -126.74857  -0.84667    33   %  0.7964
     536    -144.11842     17.34410       -126.77432  -0.87242    34   %  0.8209
     562    -144.17432     17.58465       -126.58967  -0.68777    35   %  0.8462
     577    -144.40894     17.79139       -126.61756  -0.71565    36   %  0.8710
     593    -144.61003     17.97236       -126.63767  -0.73577    37   %  0.8958
     610    -144.77802     18.13057       -126.64746  -0.74555    38   %  0.9205
     634    -144.93804     18.27054       -126.66751  -0.76560    39   %  0.9451
     654    -145.10532     18.39967       -126.70566  -0.80375    40   %  0.9690
     676    -145.27926     18.53049       -126.74876  -0.84686    41   %  0.9921
     705    -145.33256     18.67564       -126.65692  -0.75502    42   %  1.0141
     735    -145.53396     18.83702       -126.69694  -0.79504    43   %  1.0349
     763    -145.75358     19.00072       -126.75286  -0.85095    44   %  1.0549
     796    -146.00000     19.15464       -126.84536  -0.94345    45   %  1.0746
     827    -146.18067     19.29438       -126.88628  -0.98438    46   %  1.0943
     854    -146.34945     19.42133       -126.92811  -1.02621    47   %  1.1140
     883    -146.48023     19.53624       -126.94400  -1.04209    48   %  1.1337
     915    -146.43447     19.63777       -126.79670  -0.89479    49   %  1.1532


           POTENTIAL ENERGY HAS STOPPED DROPPING

           INITIAL VELOCITY IN DRC (Angstroms/Femtosecond)
         0.02749        -0.00002         0.00000
        -0.59622        -0.00052         0.00005
        -0.05300        -0.02405        -0.00001
        -0.05294         0.01211        -0.02088
        -0.05294         0.01210         0.02088
         0.20172         0.00044        -0.00004

 GEOMETRY PRIORITY, STEP = 0.0250 ANGSTROMS



     POINT   POTENTIAL  +  ENERGY LOST   =   TOTAL      ERROR    REF%   MOVEMENT
       1    -125.85566      0.00000       -125.85566   0.00000     1   %  0.0000
      18    -125.89936      0.03008       -125.86928  -0.00304     2   %  0.0227
      23    -126.13404      0.25244       -125.88159  -0.01536     3   %  0.0499
      30    -126.45805      0.62580       -125.83226   0.03398     4   %  0.0748
      37    -126.93966      1.11324       -125.82642   0.03982     5   %  0.0973
      44    -127.59315      1.75340       -125.83975   0.02649     6   %  0.1204
      55    -128.61996      2.74783       -125.87213  -0.00589     7   %  0.1492
      60    -129.49721      3.61473       -125.88248  -0.01624     8   %  0.1706
      66    -130.66631      4.76803       -125.89827  -0.03203     9   %  0.1956
      71    -132.06287      6.15457       -125.90830  -0.04206    10   %  0.2223
      73    -132.92915      7.02122       -125.90794  -0.04170    11   %  0.2378
      80    -134.96821      9.01159       -125.95661  -0.09038    12   %  0.2708
      84    -136.25509     10.29955       -125.95553  -0.08930    13   %  0.2908
      96    -138.18550     12.17730       -126.00819  -0.14196    14   %  0.3183
     101    -140.10646     14.08965       -126.01682  -0.15058    15   %  0.3449
     105    -141.88647     15.87888       -126.00759  -0.14135    16   %  0.3688
     111    -143.82273     17.79402       -126.02870  -0.16247    17   %  0.3936
     115    -146.00174     19.96372       -126.03801  -0.17178    18   %  0.4210
     122    -147.78835     21.75382       -126.03453  -0.16829    19   %  0.4432
     128    -149.85670     23.83635       -126.02035  -0.15411    20   %  0.4687
     136    -152.07297     26.03739       -126.03558  -0.16934    21   %  0.4956
     157    -153.88868     27.80634       -126.08234  -0.21610    22   %  0.5172
     162    -155.87360     29.80266       -126.07093  -0.20470    23   %  0.5419
     166    -158.15811     32.08314       -126.07497  -0.20873    24   %  0.5706
     170    -160.07277     34.00390       -126.06887  -0.20264    25   %  0.5955
     173    -161.82728     35.76540       -126.06188  -0.19565    26   %  0.6190
     177    -163.55605     37.50483       -126.05122  -0.18498    27   %  0.6435
     183    -165.25486     39.19883       -126.05603  -0.18979    28   %  0.6688
     187    -166.66977     40.61840       -126.05136  -0.18513    29   %  0.6915
     193    -168.28865     42.25557       -126.03308  -0.16684    30   %  0.7203
     198    -169.27215     43.24952       -126.02262  -0.15639    31   %  0.7398
     205    -170.62830     44.60861       -126.01969  -0.15345    32   %  0.7704
     210    -171.44262     45.43227       -126.01036  -0.14412    33   %  0.7924
     215    -172.19430     46.19406       -126.00024  -0.13400    34   %  0.8172
     223    -172.74044     46.78687       -125.95357  -0.08733    35   %  0.8422
     230    -173.19575     47.25379       -125.94196  -0.07572    36   %  0.8695
     235    -173.47130     47.53950       -125.93180  -0.06556    37   %  0.8929
     238    -173.68708     47.75821       -125.92887  -0.06264    38   %  0.9154
     240    -173.86101     47.93250       -125.92851  -0.06228    39   %  0.9336
     241    -173.97736     48.04561       -125.93175  -0.06552    40   %  0.9445
     244    -174.24379     48.27801       -125.96578  -0.09954    41   %  0.9643
     247    -174.42123     48.45079       -125.97043  -0.10419    42   %  0.9786
     249    -174.59571     48.61958       -125.97614  -0.10990    43   %  0.9928
     252    -174.76952     48.78765       -125.98186  -0.11563    44   %  1.0072
     254    -174.93781     48.95135       -125.98645  -0.12022    45   %  1.0215
     257    -175.10358     49.11067       -125.99290  -0.12667    46   %  1.0359
     260    -175.25708     49.26677       -125.99031  -0.12407    47   %  1.0503
     262    -175.41420     49.41932       -125.99488  -0.12864    48   %  1.0647
     265    -175.53865     49.55112       -125.98752  -0.12129    49   %  1.0775
     268    -175.70721     49.71447       -125.99274  -0.12650    50   %  1.0937
     270    -175.85108     49.85522       -125.99587  -0.12963    51   %  1.1081
     272    -175.99639     49.99598       -126.00041  -0.13417    52   %  1.1227
     274    -176.13368     50.13146       -126.00222  -0.13598    53   %  1.1372
     276    -176.27283     50.26627       -126.00656  -0.14032    54   %  1.1519
     278    -176.40787     50.39825       -126.00962  -0.14338    55   %  1.1668
     280    -176.52215     50.50919       -126.01296  -0.14672    56   %  1.1793
     284    -176.66033     50.65011       -126.01022  -0.14398    57   %  1.1960
     287    -176.78441     50.76762       -126.01679  -0.15055    58   %  1.2102
     290    -176.91156     50.89015       -126.02140  -0.15517    59   %  1.2254
     292    -177.03124     51.00548       -126.02576  -0.15953    60   %  1.2400
     295    -177.14992     51.11926       -126.03066  -0.16443    61   %  1.2547
     297    -177.24675     51.21236       -126.03439  -0.16815    62   %  1.2670
     303    -177.27537     51.33965       -125.93572  -0.06948    63   %  1.2844
     306    -177.38523     51.44451       -125.94072  -0.07448    64   %  1.2990
     309    -177.48909     51.54713       -125.94196  -0.07572    65   %  1.3138
     311    -177.59451     51.64761       -125.94691  -0.08067    66   %  1.3286
     314    -177.69446     51.74600       -125.94846  -0.08222    67   %  1.3434
     315    -177.77932     51.83617       -125.94315  -0.07692    68   %  1.3575
     320    -177.87714     51.93552       -125.94162  -0.07539    69   %  1.3732
     323    -177.97307     52.02661       -125.94646  -0.08023    70   %  1.3880
     326    -178.07250     52.11577       -125.95673  -0.09049    71   %  1.4030
     330    -178.15819     52.19155       -125.96664  -0.10040    72   %  1.4160
     336    -178.25225     52.28738       -125.96487  -0.09863    73   %  1.4329
     342    -178.24734     52.37123       -125.87611  -0.00988    74   %  1.4481
     345    -178.33136     52.45062       -125.88074  -0.01450    75   %  1.4669
     348    -178.41378     52.52922       -125.88457  -0.01833    76   %  1.4915
     350    -178.49505     52.60588       -125.88918  -0.02294    77   %  1.5163
     352    -178.55415     52.66288       -125.89127  -0.02503    78   %  1.5349
     355    -178.62647     52.79314       -125.83333   0.03290    79   %  1.5582
     362    -178.70168     52.86702       -125.83466   0.03158    80   %  1.5822
     365    -178.77695     52.93671       -125.84024   0.02600    81   %  1.6070
     368    -178.84620     53.00515       -125.84104   0.02520    82   %  1.6321
     370    -178.87913     53.03893       -125.84021   0.02603    83   %  1.6444
     377    -178.96699     53.14869       -125.81831   0.04793    84   %  1.6798
     380    -179.03667     53.21444       -125.82223   0.04400    85   %  1.7057
     383    -179.10081     53.27401       -125.82680   0.03944    86   %  1.7298
     385    -179.15256     53.32419       -125.82838   0.03786    87   %  1.7497
     395    -179.22539     53.42733       -125.79806   0.06818    88   %  1.7779
     401    -179.18467     53.48462       -125.70005   0.16619    89   %  1.8031
     406    -179.24332     53.53961       -125.70371   0.16253    90   %  1.8280
     408    -179.29991     53.59371       -125.70620   0.16004    91   %  1.8529
     409    -179.35894     53.64925       -125.70969   0.15655    92   %  1.8795
     411    -179.37710     53.67932       -125.69779   0.16845    93   %  1.8893
     419    -179.43203     53.79820       -125.63383   0.23240    94   %  1.9121
     422    -179.48749     53.84944       -125.63805   0.22819    95   %  1.9384
     424    -179.51788     53.88235       -125.63552   0.23072    96   %  1.9532
     435    -179.58146     54.12952       -125.45194   0.41430    97   %  1.9839
     438    -179.62663     54.17427       -125.45237   0.41387    98   %  2.0086
     444    -179.66970     54.22964       -125.44006   0.42617    99   %  2.0325
     454    -179.70866     54.27619       -125.43248   0.43376   100   %  2.0590
     457    -179.75875     54.31774       -125.44101   0.42522   101   %  2.0839
     459    -179.79310     54.34830       -125.44480   0.42143   102   %  2.1027
     469    -179.83902     54.45473       -125.38428   0.48195   103   %  2.1291
     473    -179.86699     54.49532       -125.37167   0.49456   104   %  2.1550
     482    -179.90844     54.58839       -125.32005   0.54619   105   %  2.1801
     489    -179.93898     54.62429       -125.31469   0.55154   106   %  2.2049
     491    -179.95746     54.64323       -125.31423   0.55201   107   %  2.2191
     498    -179.98157     54.82360       -125.15797   0.70827   108   %  2.2352
     508    -180.01811     54.85502       -125.16309   0.70315   109   %  2.2564
     510    -180.03902     54.88204       -125.15698   0.70925   110   %  2.2782
     523    -180.06956     55.12772       -124.94184   0.92440   111   %  2.2915
     526    -180.09450     55.15105       -124.94345   0.92279   112   %  2.3091
     529    -180.08620     55.36651       -124.71969   1.14655   113   %  2.3184
     539    -180.13004     55.40924       -124.72080   1.14544   114   %  2.3342
     542    -180.16260     55.39704       -124.76556   1.10067   115   %  2.3644
     546    -180.14458     55.64695       -124.49763   1.36861   116   %  2.3599
     556    -180.19010     55.69104       -124.49906   1.36718   117   %  2.3791
     558    -180.22537     55.67953       -124.54584   1.32040   118   %  2.4060
     560    -180.12064     55.86230       -124.25834   1.60790   119   %  2.3924
     569    -180.23225     55.97789       -124.25436   1.61188   120   %  2.4097
     574    -180.26081     56.00403       -124.25677   1.60946   121   %  2.4351
     590    -180.31548     56.37035       -123.94513   1.92111   122   %  2.4795
     602    -180.34273     56.56260       -123.78013   2.08611   123   %  2.5017
     604    -180.35196     56.57691       -123.77505   2.09119   124   %  2.5134
     618    -180.39083     56.68915       -123.70168   2.16455   125   %  2.5513
     622    -180.39163     56.89201       -123.49962   2.36662   126   %  2.5547
     631    -180.42693     56.91903       -123.50789   2.35834   127   %  2.5769
     633    -180.38077     56.94841       -123.43236   2.43388   128   %  2.5804
     639    -180.43847     57.09681       -123.34166   2.52458   129   %  2.5913
     649    -180.46828     57.11852       -123.34977   2.51647   130   %  2.6172
     651    -180.47621     57.12618       -123.35003   2.51620   131   %  2.6262
     652    -180.48333     57.13798       -123.34534   2.52089   132   %  2.6429
     653    -179.69002     57.33821       -122.35182   3.51442   133   %  2.6166
     656    -180.28678     58.11668       -122.17010   3.69614   134   %  2.6326
     662    -180.46724     58.29593       -122.17131   3.69493   135   %  2.6429
     676    -180.51250     58.33911       -122.17339   3.69285   136   %  2.6630
     678    -180.51828     58.35165       -122.16664   3.69960   137   %  2.6799
     686    -180.52605     58.72564       -121.80041   4.06583   138   %  2.6808
     695    -180.54900     58.74398       -121.80502   4.06122   139   %  2.7034
     698    -180.53529     58.94277       -121.59252   4.27372   140   %  2.7186
     712    -180.57205     58.98554       -121.58652   4.27972   141   %  2.7296
     719    -180.57924     59.14368       -121.43556   4.43068   142   %  2.7394
     728    -180.59399     59.15720       -121.43679   4.42945   143   %  2.7553
     730    -180.53642     59.25122       -121.28520   4.58103   144   %  2.7748
     742    -180.60699     59.34681       -121.26018   4.60606   145   %  2.7706
     746    -180.58996     59.36374       -121.22622   4.64002   146   %  2.7824
     762    -180.63515     59.55649       -121.07866   4.78758   147   %  2.8061
     776    -180.64632     59.74653       -120.89978   4.96645   148   %  2.8201
     793    -180.66243     59.89279       -120.76964   5.09660   149   %  2.8481
     800    -180.66729     59.97448       -120.69281   5.17343   150   %  2.8543
     807    -180.67271     59.98389       -120.68882   5.17741   151   %  2.8675
     822    -180.68985     60.10322       -120.58662   5.27961   152   %  2.8943
     840    -180.70552     60.66299       -120.04253   5.82371   153   %  2.9173
     875    -180.72150     61.52713       -119.19437   6.67186   154   %  2.9607
     899    -180.70355     62.44025       -118.26331   7.60293   155   %  2.9792
     912    -180.74409     62.58013       -118.16396   7.70228   156   %  2.9967
     928    -180.75449     62.77177       -117.98271   7.88352   157   %  3.0134
     954    -180.66311     62.98663       -117.67648   8.18976   158   %  3.0446
     966    -180.66886     63.16996       -117.49890   8.36734   159   %  3.0535
     970    -180.65065     63.18240       -117.46825   8.39799   160   %  3.0661
     983    -180.68091     63.36585       -117.31505   8.55118   161   %  3.0752


           POTENTIAL ENERGY HAS STOPPED DROPPING


 **********************
 *                    *
 * JOB ENDED NORMALLY *
 *                    *
 **********************



 TOTAL JOB TIME:            26.40 SECONDS

 == MOPAC DONE ==
